This is a multi-thread run using 8 threads
/home/tsivion/software/qchem_installation/qchem411/bin/parallel.csh,  , benzene.in, 1, 1, /scr/tsivion/qchem15586/
MPIRUN in parallel.csh is /home/tsivion/software/qchem_installation/qchem411/bin/mpi/mpirun_qchem
P4_RSHCOMMAND in parallel.csh is ssh
QCOUTFILE is stdout
Q-Chem machineFile is /home/tsivion/software/qchem_installation/qchem411/bin/mpi/machines 
mFile = /home/tsivion/software/qchem_installation/qchem411/bin/mpi/machines
                  Welcome to Q-Chem
     A Quantum Leap Into The Future Of Chemistry


 Q-Chem 4.2, Q-Chem, Inc., Pleasanton, CA (2014).

 Y. Shao,  Z. Gan,  E. Epifanovsky,  A. T. B. Gilbert,  M. Wormit,  
 J. Kussmann,  A. W. Lange,  A. Behn,  J. Deng,  X. Feng,  D. Ghosh,  
 M. Goldey,  P. R. Horn,  L. D. Jacobson,  I. Kaliman,  R. Z. Khaliullin,  
 T. Kus,  A. Landau,  J. Liu,  E. I. Proynov,  Y. M. Rhee,  R. M. Richard,  
 M. A. Rohrdanz,  R. P. Steele,  E. J. Sundstrom,  H. L. Woodcock III,  
 P. M. Zimmerman,  D. Zuev,  B. Albrecht,  E. Alguire,  B. Austin,  
 G. J. O. Beran,  Y. A. Bernard,  E. Berquist,  K. Brandhorst,  
 K. B. Bravaya,  S. T. Brown,  D. Casanova,  C.-M. Chang,  Y. Chen,  
 S. H. Chien,  K. D. Closser,  D. L. Crittenden,  M. Diedenhofen,  
 R. A. DiStasio Jr.,  H. Do,  A. D. Dutoi,  R. G. Edgar,  S. Fatehi,  
 L. Fusti-Molnar,  A. Ghysels,  A. Golubeva-Zadorozhnaya,  J. Gomes,  
 M. W. D. Hanson-Heine,  P. H. P. Harbach,  A. W. Hauser,  E. G. Hohenstein,  
 Z. C. Holden,  T.-C. Jagau,  H. Ji,  B. Kaduk,  K. Khistyaev,  Jaehoon Kim,  
 Jihan Kim,  R. A. King,  P. Klunzinger,  D. Kosenkov,  T. Kowalczyk,  
 C. M. Krauter,  K. U. Lao,  A. Laurent,  K. V. Lawler,  S. V. Levchenko,  
 C. Y. Lin,  F. Liu,  E. Livshits,  R. C. Lochan,  A. Luenser,  P. Manohar,  
 S. F. Manzer,  S.-P. Mao,  N. Mardirossian,  A. V. Marenich,  S. A. Maurer,  
 N. J. Mayhall,  C. M. Oana,  R. Olivares-Amaya,  D. P. O'Neill,  
 J. A. Parkhill,  T. M. Perrine,  R. Peverati,  P. A. Pieniazek,  A. Prociuk,  
 D. R. Rehn,  E. Rosta,  N. J. Russ,  N. Sergueev,  S. M. Sharada,  
 S. Sharma,  D. W. Small,  A. Sodt,  T. Stein,  D. Stuck,  Y.-C. Su,  
 A. J. W. Thom,  T. Tsuchimochi,  L. Vogt,  O. Vydrov,  T. Wang,  
 M. A. Watson,  J. Wenzel,  A. White,  C. F. Williams,  V. Vanovschi,  
 S. Yeganeh,  S. R. Yost,  Z.-Q. You,  I. Y. Zhang,  X. Zhang,  Y. Zhao,  
 B. R. Brooks,  G. K. L. Chan,  D. M. Chipman,  C. J. Cramer,  
 W. A. Goddard III,  M. S. Gordon,  W. J. Hehre,  A. Klamt,  
 H. F. Schaefer III,  M. W. Schmidt,  C. D. Sherrill,  D. G. Truhlar,  
 A. Warshel,  X. Xu,  A. Aspuru-Guzik,  R. Baer,  A. T. Bell,  N. A. Besley,  
 J.-D. Chai,  A. Dreuw,  B. D. Dunietz,  T. R. Furlani,  S. R. Gwaltney,  
 C.-P. Hsu,  Y. Jung,  J. Kong,  D. S. Lambrecht,  W. Liang,  C. Ochsenfeld,  
 V. A. Rassolov,  L. V. Slipchenko,  J. E. Subotnik,  T. Van Voorhis,  
 J. M. Herbert,  A. I. Krylov,  P. M. W. Gill,  M. Head-Gordon

 Contributors to earlier versions of Q-Chem not listed above: 
 R. D. Adamson,  J. Baker,  E. F. C. Byrd,  A. K. Chakraborty,  C.-L. Cheng,  
 H. Dachsel,  R. J. Doerksen,  G. Hawkins,  A. Heyden,  S. Hirata,  
 G. Kedziora,  F. J. Keil,  C. Kelley,  P. P. Korambath,  W. Kurlancheek,  
 A. M. Lee,  M. S. Lee,  D. Liotard,  I. Lotan,  P. E. Maslen,  N. Nair,  
 D. Neuhauser,  R. Olson,  B. Peters,  J. Ritchie,  N. E. Schultz,  
 N. Shenvi,  A. C. Simmonett,  K. S. Thanthiriwatte,  Q. Wu,  W. Zhang

 Q-Chem 4.2.0 for Intel X86 EM64T Linux

 Parts of Q-Chem use Armadillo 4.100.2 (Dirt Cruiser).
 http://arma.sourceforge.net/

 Q-Chem begins on Fri Sep 12 16:24:05 2014  

Host: 
0

     Scratch files written to /scr/tsivion/qchem15586//
 May2114 |home|tsivion|software|qchem_installation|qchem411|libmdc|qstr_info.C -1
Finally everything over in PARseQInput

--------------------------------------------------------------
User input:
--------------------------------------------------------------
$molecule
0 1
  C      1.38672132      0.26488984     -0.10394909
  C      0.47089772      1.33140776     -0.10986281
  C      0.92071019     -1.06096872     -0.07902903
  C     -0.46075796     -1.32072751     -0.06008169
  C     -0.91060210      1.07152525     -0.09090164
  C     -1.37643089     -0.25438752     -0.06601275
  H      1.63476423     -1.89412821     -0.07444185
  H     -0.82497915     -2.35573701     -0.04093523
  H     -1.62573229      1.90375052     -0.09554740
  H     -2.45479333     -0.45704378     -0.05125227
  H      2.46511822      0.46631336     -0.11892886
  H      0.83416037      2.36652129     -0.12915339
$end

$rem
	jobtype 				opt
	exchange 				b97-d
	dft_d					empirical_grimme3
	basis 					cc-pvdz
	max_scf_cycles 			200
	symmetry 				false
	sym_ignore 				true
	molden_format			true
	nbo						false
	scf_convergence 		8
	thresh					13
	geom_opt_tol_gradient 	100
	geom_opt_tol_energy     10
	GEOM_OPT_MAX_CYCLES		500
	thresh					13
	mem_static				3000
	mem_total				8000
	DFT_D3_RS6 				892
	DFT_D3_S8  				909
$end

$nbo
e2pert
$end

--------------------------------------------------------------
 ----------------------------------------------------------------
             Standard Nuclear Orientation (Angstroms)
    I     Atom           X                Y                Z
 ----------------------------------------------------------------
    1      C       1.3867213200     0.2648898400    -0.1039490900
    2      C       0.4708977200     1.3314077600    -0.1098628100
    3      C       0.9207101900    -1.0609687200    -0.0790290300
    4      C      -0.4607579600    -1.3207275100    -0.0600816900
    5      C      -0.9106021000     1.0715252500    -0.0909016400
    6      C      -1.3764308900    -0.2543875200    -0.0660127500
    7      H       1.6347642300    -1.8941282100    -0.0744418500
    8      H      -0.8249791500    -2.3557370100    -0.0409352300
    9      H      -1.6257322900     1.9037505200    -0.0955474000
   10      H      -2.4547933300    -0.4570437800    -0.0512522700
   11      H       2.4651182200     0.4663133600    -0.1189288600
   12      H       0.8341603700     2.3665212900    -0.1291533900
 ----------------------------------------------------------------
 Nuclear Repulsion Energy =   201.7751351891 hartrees
 There are       21 alpha and       21 beta electrons
 Requested basis set is cc-pVDZ
 There are 54 shells and 114 basis functions

Total QAlloc Memory Limit   8000 MB
Mega-Array Size      2933 MB
MEM_STATIC part      3000 MB
 A cutoff of  1.0D-13 yielded   1467 shell pairs
 There are      6615 function pairs (      7350 Cartesian)
 Smallest overlap matrix eigenvalue = 3.89E-04

  Scale SEOQF with 1.000000e-01/1.000000e-01/1.000000e+00

 Standard Electronic Orientation quadrupole field applied
 Nucleus-field energy     =     0.0000000055 hartrees
 Guess from superposition of atomic densities
 Warning:  Energy on first SCF cycle will be non-variational
 A restricted Kohn-Sham SCF calculation will be
 performed using Pulay DIIS extrapolation
 Exchange:  B97D      Correlation:  B97-D
 Using SG-1 standard quadrature grid
 SCF converges when DIIS error is below 1.0E-08
 using 8 threads for integral computing 
 
 -------------------------------------------------------
 OpenMP Integral Computing Module                       
 Release: version 1.0, May 2013, Q-Chem Inc. Pittsburgh 
 -------------------------------------------------------
 Integral Job Info:
 Integral job number is                      20
 Integral operator is                         1
 short-range coefficients               -999999
 long-range coefficients                -999999
 Omega coefficients                           0
 if combine SR and LR in K              -999999
 Integral screening is                        1
 Integral computing path is                   2
 max size of driver memory is            800000
 size of driver memory is                593606
 size of scratch memory is               917280
 max col of scratch BK array               1296
 max len of scratch array in speh3          155
 max len of scratch index in speh4           18
 max int batch size is                       50
 min int batch size is                       15
 fixed nKL is                                15
 max L of basis functions is                  2
 order of int derivative is                   0
 number of shells is                         54
 number of basis is                         120
 number of cartesian basis is               120
 number of contracted shell pairs          1467
 number of primitive shell pairs           7602
 maxK2 (contraction) of shell pair           49
 max number of K2 of shell pair               1
 max number of CS2 of shell pair            186
 max number of PS2 of shell pair           1302
 mem total for path MDJ                   43626
 -------------------------------------------------------
         cpu   0.57 wall   0.07
 -------------------------------------------------------
 OpenMP BLAS3 based DFT computing Module                
 Release: version 1.0, May 2013, Q-Chem Inc. Pittsburgh 
 -------------------------------------------------------
in dftxc.C, eleTot sum is:42.000104, tauTot is:0.000000
 ---------------------------------------
  Cycle       Energy         DIIS Error
 ---------------------------------------
    1    -232.9997641110      7.04E-02
         cpu   1.58 wall   0.20
in dftxc.C, eleTot sum is:42.000111, tauTot is:0.000000
    2    -231.9383957617      8.60E-03
         cpu   1.56 wall   0.20
in dftxc.C, eleTot sum is:42.000168, tauTot is:0.000000
    3    -231.8579344368      1.12E-02
         cpu   1.54 wall   0.19
in dftxc.C, eleTot sum is:42.000140, tauTot is:0.000000
    4    -232.0870764167      9.79E-04
         cpu   1.55 wall   0.20
in dftxc.C, eleTot sum is:42.000139, tauTot is:0.000000
    5    -232.0886647372      2.37E-04
         cpu   1.50 wall   0.19
in dftxc.C, eleTot sum is:42.000140, tauTot is:0.000000
    6    -232.0887066712      1.85E-04
         cpu   1.50 wall   0.19
in dftxc.C, eleTot sum is:42.000139, tauTot is:0.000000
    7    -232.0887628305      1.19E-05
         cpu   1.58 wall   0.21
in dftxc.C, eleTot sum is:42.000139, tauTot is:0.000000
    8    -232.0887630465      4.99E-06
         cpu   1.44 wall   0.18
in dftxc.C, eleTot sum is:42.000139, tauTot is:0.000000
    9    -232.0887630665      3.94E-06
         cpu   1.44 wall   0.18
in dftxc.C, eleTot sum is:42.000139, tauTot is:0.000000
   10    -232.0887630987      2.09E-07
         cpu   1.37 wall   0.17
in dftxc.C, eleTot sum is:42.000139, tauTot is:0.000000
   11    -232.0887630988      2.39E-08
         cpu   1.30 wall   0.16
in dftxc.C, eleTot sum is:42.000139, tauTot is:0.000000
   12    -232.0887630989      1.94E-08
         cpu   1.27 wall   0.16
in dftxc.C, eleTot sum is:42.000139, tauTot is:0.000000
   13    -232.0887630988      7.92E-09 Convergence criterion met
 ---------------------------------------
 SCF time:  CPU 44.02 s  wall 5.70 s
 SCF   energy in the final basis set = -232.0887630988
 Total energy in the final basis set = -232.0887630988
 Analysis of SCF Wavefunction
 
 --------------------------------------------------------------
                    Orbital Energies (a.u.)
 --------------------------------------------------------------
 
 Alpha MOs
 -- Occupied --
 -9.919  -9.919  -9.919  -9.918  -9.918  -9.918  -0.773  -0.673
 -0.673  -0.540  -0.540  -0.464  -0.409  -0.392  -0.370  -0.370
 -0.320  -0.299  -0.299  -0.222  -0.221
 -- Virtual --
 -0.033  -0.033   0.040   0.082   0.083   0.109   0.116   0.116
  0.133   0.246   0.246   0.261   0.261   0.367   0.383   0.414
  0.435   0.466   0.466   0.469   0.469   0.490   0.490   0.491
  0.496   0.560   0.560   0.600   0.600   0.615   0.615   0.633
  0.666   0.750   0.776   0.815   0.838   0.838   0.866   0.947
  0.947   0.952   0.952   0.965   0.966   1.007   1.008   1.008
  1.154   1.229   1.229   1.397   1.410   1.410   1.448   1.463
  1.523   1.523   1.534   1.534   1.563   1.611   1.611   1.625
  1.625   1.669   1.717   1.717   1.758   1.768   1.768   1.777
  1.777   1.827   1.898   1.898   1.902   1.902   1.936   2.107
  2.168   2.273   2.335   2.335   2.335   2.335   2.531   2.531
  2.622   2.695   2.796   2.796   3.511
 --------------------------------------------------------------
 
          Ground-State Mulliken Net Atomic Charges

     Atom                 Charge (a.u.)
  ----------------------------------------
      1 C                     0.029136
      2 C                     0.028611
      3 C                     0.028856
      4 C                     0.028314
      5 C                     0.028874
      6 C                     0.028872
      7 H                    -0.028801
      8 H                    -0.028785
      9 H                    -0.028797
     10 H                    -0.028738
     11 H                    -0.028747
     12 H                    -0.028794
  ----------------------------------------
  Sum of atomic charges =     0.000000

 -----------------------------------------------------------------
                    Cartesian Multipole Moments
 -----------------------------------------------------------------
    Charge (ESU x 10^10)
                 0.0000
    Dipole Moment (Debye)
         X      -0.0003      Y      -0.0003      Z      -0.0002
       Tot       0.0005
    Quadrupole Moments (Debye-Ang)
        XX     -31.9317     XY       0.0016     YY     -31.9372
        XZ      -0.0764     YZ      -0.1037     ZZ     -38.9250
    Octopole Moments (Debye-Ang^2)
       XXX      -0.4833    XXY      -0.1707    XYY      -0.1638
       YYY      -0.5020    XXZ       2.7116    XYZ      -0.0012
       YYZ       2.7122    XZZ      -0.1834    YZZ      -0.1866
       ZZZ       9.9235
    Hexadecapole Moments (Debye-Ang^3)
      XXXX    -279.2667   XXXY       0.0004   XXYY     -93.0912
      XYYY       0.0167   YYYY    -279.2005   XXXZ       1.0571
      XXYZ       0.4783   XYYZ       0.3549   YYYZ       1.4376
      XXZZ     -62.2522   XYZZ       0.0061   YYZZ     -62.2327
      XZZZ       1.6163   YZZZ       2.1919   ZZZZ     -44.2311
 -----------------------------------------------------------------
 Calculating analytic gradient of the SCF energy
         cpu   2.42 wall   0.33
in dftxc.C, eleTot sum is:42.000139, tauTot is:0.000000
 Gradient of SCF Energy
            1           2           3           4           5           6
    1   0.0000210   0.0000217   0.0000055  -0.0000243  -0.0000006  -0.0000200
    2  -0.0000197   0.0000200  -0.0000211  -0.0000211   0.0000267   0.0000184
    3  -0.0000017  -0.0000042   0.0000015   0.0000057  -0.0000025   0.0000066
            7           8           9          10          11          12
    1  -0.0000237  -0.0000438   0.0000213  -0.0000242   0.0000231   0.0000439
    2  -0.0000405   0.0000033   0.0000379   0.0000379  -0.0000383  -0.0000035
    3   0.0000033   0.0000095  -0.0000022   0.0000046  -0.0000094  -0.0000112
 Max gradient component =       4.393E-05
 RMS gradient           =       2.179E-05
 Gradient time:  CPU 7.43 s  wall 1.00 s
 Geometry Optimization Parameters
   NAtoms,    NIC,     NZ,  NCons,   NDum,   NFix, NCnnct, MaxDiis
       12      78       0       0       0       0       0       0


** GEOMETRY OPTIMIZATION IN DELOCALIZED INTERNAL COORDINATES **
   Searching for a Minimum

   Optimization Cycle:   1

                       Coordinates (Angstroms)
     ATOM                X               Y               Z
      1  C         1.3867213200    0.2648898400   -0.1039490900
      2  C         0.4708977200    1.3314077600   -0.1098628100
      3  C         0.9207101900   -1.0609687200   -0.0790290300
      4  C        -0.4607579600   -1.3207275100   -0.0600816900
      5  C        -0.9106021000    1.0715252500   -0.0909016400
      6  C        -1.3764308900   -0.2543875200   -0.0660127500
      7  H         1.6347642300   -1.8941282100   -0.0744418500
      8  H        -0.8249791500   -2.3557370100   -0.0409352300
      9  H        -1.6257322900    1.9037505200   -0.0955474000
     10  H        -2.4547933300   -0.4570437800   -0.0512522700
     11  H         2.4651182200    0.4663133600   -0.1189288600
     12  H         0.8341603700    2.3665212900   -0.1291533900
   Point Group: c1    Number of degrees of freedom:    30


   Energy is   -232.088763099


 Attempting to Generate Delocalized Internal Coordinates
 GETINT wrote B to file, NVib is           30
 calling HSSCONV
 HCONV 3*NATOMS:           36
 wrote HINT to file
  writing hessian 

 30 Hessian modes will be used to form the next step
  Hessian Eigenvalues:
     0.021637    0.021641    0.021648    0.021651    0.021653    0.021655
     0.021659    0.021666    0.021671    0.160000    0.160000    0.160000
     0.160000    0.160000    0.160000    0.220000    0.220000    0.220000
     0.339722    0.339781    0.339834    0.339843    0.339965    0.339994
     0.407012    0.407225    0.446672    0.446810    0.447030    0.447071

 Minimum Search - Taking Simple RFO Step
 Searching for Lamda that Minimizes Along All modes
 Value Taken    Lamda =   0.00000000
 Step Taken.  Stepsize is  0.000293

                             Maximum     Tolerance    Cnvgd?
         Gradient           0.000093      0.000100     YES
         Displacement       0.000220      0.001200     YES
         Energy change     *********      0.000000      NO


                       Distance Matrix (Angstroms)
             C (  1)   C (  2)   C (  3)   C (  4)   C (  5)   C (  6)
   C (  2)  1.405784
   C (  3)  1.405592  2.434491
   C (  4)  2.435013  2.811455  1.405805
   C (  5)  2.434856  1.405859  2.810939  2.434375
   C (  6)  2.811778  2.435014  2.434666  1.405551  1.405582
   H (  7)  2.173420  3.429274  1.097292  2.172604  3.908230  3.428719
   H (  8)  3.429763  3.908847  2.173777  1.097392  3.428696  2.172648
   H (  9)  3.429404  2.173393  3.908222  3.428656  1.097284  2.172690
   H ( 10)  3.909118  3.429528  3.429216  2.173063  2.173159  1.097339
   H ( 11)  1.097149  2.173795  2.172413  3.428955  3.429658  3.908927
   H ( 12)  2.173204  1.097175  3.428949  3.908630  2.173171  3.429266
             H (  7)   H (  8)   H (  9)   H ( 10)   H ( 11)
   H (  8)  2.502907
   H (  9)  5.005514  4.334446
   H ( 10)  4.334770  2.502286  2.502530
   H ( 11)  2.502629  4.335296  4.336108  5.006266
   H ( 12)  4.335562  5.006021  2.503269  4.335413  2.504180
 
 Final energy is   -232.088763098850     


 ******************************
 **  OPTIMIZATION CONVERGED  **
 ******************************

Z-matrix Print:
$molecule
0 1
C 
H  1 1.097292
C  1 1.405592 2 120.035900
H  3 1.097149 1 119.953061 2 -0.006854 0
C  3 1.405784 1 119.981123 2 -179.997121 0
H  5 1.097175 3 120.008647 1 -179.990431 0
C  1 1.405805 2 119.941964 3 -179.994243 0
H  7 1.097392 1 120.043590 2 0.013043 0
C  7 1.405551 1 119.996793 2 179.996263 0
H  9 1.097339 7 120.002419 1 -179.998311 0
C  9 1.405582 7 119.988822 1 0.000000 0
H  11 1.097284 9 119.969308 7 -179.998659 0
$end

 Analysis of SCF Wavefunction
 
 --------------------------------------------------------------
                    Orbital Energies (a.u.)
 --------------------------------------------------------------
 
 Alpha MOs
 -- Occupied --
 -9.919  -9.919  -9.919  -9.918  -9.918  -9.918  -0.773  -0.673
 -0.673  -0.540  -0.540  -0.464  -0.409  -0.392  -0.370  -0.370
 -0.320  -0.299  -0.299  -0.222  -0.221
 -- Virtual --
 -0.033  -0.033   0.040   0.082   0.083   0.109   0.116   0.116
  0.133   0.246   0.246   0.261   0.261   0.367   0.383   0.414
  0.435   0.466   0.466   0.469   0.469   0.490   0.490   0.491
  0.496   0.560   0.560   0.600   0.600   0.615   0.615   0.633
  0.666   0.750   0.776   0.815   0.838   0.838   0.866   0.947
  0.947   0.952   0.952   0.965   0.966   1.007   1.008   1.008
  1.154   1.229   1.229   1.397   1.410   1.410   1.448   1.463
  1.523   1.523   1.534   1.534   1.563   1.611   1.611   1.625
  1.625   1.669   1.717   1.717   1.758   1.768   1.768   1.777
  1.777   1.827   1.898   1.898   1.902   1.902   1.936   2.107
  2.168   2.273   2.335   2.335   2.335   2.335   2.531   2.531
  2.622   2.695   2.796   2.796   3.511
 --------------------------------------------------------------
 
          Ground-State Mulliken Net Atomic Charges

     Atom                 Charge (a.u.)
  ----------------------------------------
      1 C                     0.029136
      2 C                     0.028611
      3 C                     0.028856
      4 C                     0.028314
      5 C                     0.028874
      6 C                     0.028872
      7 H                    -0.028801
      8 H                    -0.028785
      9 H                    -0.028797
     10 H                    -0.028738
     11 H                    -0.028747
     12 H                    -0.028794
  ----------------------------------------
  Sum of atomic charges =     0.000000

 -----------------------------------------------------------------
                    Cartesian Multipole Moments
 -----------------------------------------------------------------
    Charge (ESU x 10^10)
                 0.0000
    Dipole Moment (Debye)
         X      -0.0003      Y      -0.0003      Z      -0.0002
       Tot       0.0005
    Quadrupole Moments (Debye-Ang)
        XX     -31.9317     XY       0.0016     YY     -31.9372
        XZ      -0.0764     YZ      -0.1037     ZZ     -38.9250
    Octopole Moments (Debye-Ang^2)
       XXX      -0.4833    XXY      -0.1707    XYY      -0.1638
       YYY      -0.5020    XXZ       2.7116    XYZ      -0.0012
       YYZ       2.7122    XZZ      -0.1834    YZZ      -0.1866
       ZZZ       9.9235
    Hexadecapole Moments (Debye-Ang^3)
      XXXX    -279.2667   XXXY       0.0004   XXYY     -93.0912
      XYYY       0.0167   YYYY    -279.2005   XXXZ       1.0571
      XXYZ       0.4783   XYYZ       0.3549   YYYZ       1.4376
      XXZZ     -62.2522   XYZZ       0.0061   YYZZ     -62.2327
      XZZZ       1.6163   YZZZ       2.1919   ZZZZ     -44.2311
 -----------------------------------------------------------------
Archival summary:
1\1\elba\OPT\ProcedureUnspecified\BasisUnspecified\66\tsivion\FriSep1216:24:122014FriSep1216:24:122014\0\\#,OPT,ProcedureUnspecified,BasisUnspecified,\\0,1\C\H,1,1.09729\C,1,1.40559,2,120.036\H,3,1.09715,1,119.953,2,-0.00685418,0\C,3,1.40578,1,119.981,2,-179.997,0\H,5,1.09717,3,120.009,1,-179.99,0\C,1,1.40581,2,119.942,3,-179.994,0\H,7,1.09739,1,120.044,2,0.0130434,0\C,7,1.40555,1,119.997,2,179.996,0\H,9,1.09734,7,120.002,1,-179.998,0\C,9,1.40558,7,119.989,1,0,0\H,11,1.09728,9,119.969,7,-179.999,0\\\@

 Total job time:  6.88s(wall), 52.67s(cpu) 
 Fri Sep 12 16:24:12 2014

======= MOLDEN-FORMATTED INPUT FILE FOLLOWS =======
[Molden Format]
[Atoms] (Angs)
  C      1    6      1.38672132      0.26488984     -0.10394909
  C      2    6      0.47089772      1.33140776     -0.10986281
  C      3    6      0.92071019     -1.06096872     -0.07902903
  C      4    6     -0.46075796     -1.32072751     -0.06008169
  C      5    6     -0.91060210      1.07152525     -0.09090164
  C      6    6     -1.37643089     -0.25438752     -0.06601275
  H      7    1      1.63476423     -1.89412821     -0.07444185
  H      8    1     -0.82497915     -2.35573701     -0.04093523
  H      9    1     -1.62573229      1.90375052     -0.09554740
  H     10    1     -2.45479333     -0.45704378     -0.05125227
  H     11    1      2.46511822      0.46631336     -0.11892886
  H     12    1      0.83416037      2.36652129     -0.12915339
[GEOCONV]
energy
     -232.0887630988
max-force
        0.0000925901
max-step
        0.0002202371
[GEOMETRIES] (XYZ)
  12
Step 1
  C      1.38672132      0.26488984     -0.10394909
  C      0.47089772      1.33140776     -0.10986281
  C      0.92071019     -1.06096872     -0.07902903
  C     -0.46075796     -1.32072751     -0.06008169
  C     -0.91060210      1.07152525     -0.09090164
  C     -1.37643089     -0.25438752     -0.06601275
  H      1.63476423     -1.89412821     -0.07444185
  H     -0.82497915     -2.35573701     -0.04093523
  H     -1.62573229      1.90375052     -0.09554740
  H     -2.45479333     -0.45704378     -0.05125227
  H      2.46511822      0.46631336     -0.11892886
  H      0.83416037      2.36652129     -0.12915339

======= END OF MOLDEN-FORMATTED INPUT FILE =======


        *************************************************************
        *                                                           *
        *  Thank you very much for using Q-Chem.  Have a nice day.  *
        *                                                           *
        *************************************************************


 
*************************************************************
Job 2 of 2 
*************************************************************
 
Q-Chem machineFile is /home/tsivion/software/qchem_installation/qchem411/bin/mpi/machines 
mFile = /home/tsivion/software/qchem_installation/qchem411/bin/mpi/machines
                  Welcome to Q-Chem
     A Quantum Leap Into The Future Of Chemistry


 Q-Chem 4.2, Q-Chem, Inc., Pleasanton, CA (2014).

 Y. Shao,  Z. Gan,  E. Epifanovsky,  A. T. B. Gilbert,  M. Wormit,  
 J. Kussmann,  A. W. Lange,  A. Behn,  J. Deng,  X. Feng,  D. Ghosh,  
 M. Goldey,  P. R. Horn,  L. D. Jacobson,  I. Kaliman,  R. Z. Khaliullin,  
 T. Kus,  A. Landau,  J. Liu,  E. I. Proynov,  Y. M. Rhee,  R. M. Richard,  
 M. A. Rohrdanz,  R. P. Steele,  E. J. Sundstrom,  H. L. Woodcock III,  
 P. M. Zimmerman,  D. Zuev,  B. Albrecht,  E. Alguire,  B. Austin,  
 G. J. O. Beran,  Y. A. Bernard,  E. Berquist,  K. Brandhorst,  
 K. B. Bravaya,  S. T. Brown,  D. Casanova,  C.-M. Chang,  Y. Chen,  
 S. H. Chien,  K. D. Closser,  D. L. Crittenden,  M. Diedenhofen,  
 R. A. DiStasio Jr.,  H. Do,  A. D. Dutoi,  R. G. Edgar,  S. Fatehi,  
 L. Fusti-Molnar,  A. Ghysels,  A. Golubeva-Zadorozhnaya,  J. Gomes,  
 M. W. D. Hanson-Heine,  P. H. P. Harbach,  A. W. Hauser,  E. G. Hohenstein,  
 Z. C. Holden,  T.-C. Jagau,  H. Ji,  B. Kaduk,  K. Khistyaev,  Jaehoon Kim,  
 Jihan Kim,  R. A. King,  P. Klunzinger,  D. Kosenkov,  T. Kowalczyk,  
 C. M. Krauter,  K. U. Lao,  A. Laurent,  K. V. Lawler,  S. V. Levchenko,  
 C. Y. Lin,  F. Liu,  E. Livshits,  R. C. Lochan,  A. Luenser,  P. Manohar,  
 S. F. Manzer,  S.-P. Mao,  N. Mardirossian,  A. V. Marenich,  S. A. Maurer,  
 N. J. Mayhall,  C. M. Oana,  R. Olivares-Amaya,  D. P. O'Neill,  
 J. A. Parkhill,  T. M. Perrine,  R. Peverati,  P. A. Pieniazek,  A. Prociuk,  
 D. R. Rehn,  E. Rosta,  N. J. Russ,  N. Sergueev,  S. M. Sharada,  
 S. Sharma,  D. W. Small,  A. Sodt,  T. Stein,  D. Stuck,  Y.-C. Su,  
 A. J. W. Thom,  T. Tsuchimochi,  L. Vogt,  O. Vydrov,  T. Wang,  
 M. A. Watson,  J. Wenzel,  A. White,  C. F. Williams,  V. Vanovschi,  
 S. Yeganeh,  S. R. Yost,  Z.-Q. You,  I. Y. Zhang,  X. Zhang,  Y. Zhao,  
 B. R. Brooks,  G. K. L. Chan,  D. M. Chipman,  C. J. Cramer,  
 W. A. Goddard III,  M. S. Gordon,  W. J. Hehre,  A. Klamt,  
 H. F. Schaefer III,  M. W. Schmidt,  C. D. Sherrill,  D. G. Truhlar,  
 A. Warshel,  X. Xu,  A. Aspuru-Guzik,  R. Baer,  A. T. Bell,  N. A. Besley,  
 J.-D. Chai,  A. Dreuw,  B. D. Dunietz,  T. R. Furlani,  S. R. Gwaltney,  
 C.-P. Hsu,  Y. Jung,  J. Kong,  D. S. Lambrecht,  W. Liang,  C. Ochsenfeld,  
 V. A. Rassolov,  L. V. Slipchenko,  J. E. Subotnik,  T. Van Voorhis,  
 J. M. Herbert,  A. I. Krylov,  P. M. W. Gill,  M. Head-Gordon

 Contributors to earlier versions of Q-Chem not listed above: 
 R. D. Adamson,  J. Baker,  E. F. C. Byrd,  A. K. Chakraborty,  C.-L. Cheng,  
 H. Dachsel,  R. J. Doerksen,  G. Hawkins,  A. Heyden,  S. Hirata,  
 G. Kedziora,  F. J. Keil,  C. Kelley,  P. P. Korambath,  W. Kurlancheek,  
 A. M. Lee,  M. S. Lee,  D. Liotard,  I. Lotan,  P. E. Maslen,  N. Nair,  
 D. Neuhauser,  R. Olson,  B. Peters,  J. Ritchie,  N. E. Schultz,  
 N. Shenvi,  A. C. Simmonett,  K. S. Thanthiriwatte,  Q. Wu,  W. Zhang

 Q-Chem 4.2.0 for Intel X86 EM64T Linux

 Parts of Q-Chem use Armadillo 4.100.2 (Dirt Cruiser).
 http://arma.sourceforge.net/

 Q-Chem begins on Fri Sep 12 16:24:13 2014  

Host: 
0

     Scratch files written to /scr/tsivion/qchem15586//
 May2114 |home|tsivion|software|qchem_installation|qchem411|libmdc|qstr_info.C -1
Finally everything over in PARseQInput

--------------------------------------------------------------
User input:
--------------------------------------------------------------

$molecule
read
$end

$rem
	jobtype 				freq
	exchange 				b97-d
	dft_d					empirical_grimme3
	basis 					cc-pvdz
	max_scf_cycles 			200
	symmetry 				false
	sym_ignore 				true
	molden_format			true
	nbo						false
	scf_convergence 		7
	thresh					13
	geom_opt_tol_gradient 	300
	geom_opt_tol_energy     300
	GEOM_OPT_MAX_CYCLES		500
	thresh					13
	mem_static				3000
	mem_total				8000
	DFT_D3_RS6 				892
	DFT_D3_S8  				909
	molden_format			true
	ideriv		1
$end

$nbo
e2pert
$end


--------------------------------------------------------------
 ----------------------------------------------------------------
             Standard Nuclear Orientation (Angstroms)
    I     Atom           X                Y                Z
 ----------------------------------------------------------------
    1      C       1.3867213200     0.2648898400    -0.1039490900
    2      C       0.4708977200     1.3314077600    -0.1098628100
    3      C       0.9207101900    -1.0609687200    -0.0790290300
    4      C      -0.4607579600    -1.3207275100    -0.0600816900
    5      C      -0.9106021000     1.0715252500    -0.0909016400
    6      C      -1.3764308900    -0.2543875200    -0.0660127500
    7      H       1.6347642300    -1.8941282100    -0.0744418500
    8      H      -0.8249791500    -2.3557370100    -0.0409352300
    9      H      -1.6257322900     1.9037505200    -0.0955474000
   10      H      -2.4547933300    -0.4570437800    -0.0512522700
   11      H       2.4651182200     0.4663133600    -0.1189288600
   12      H       0.8341603700     2.3665212900    -0.1291533900
 ----------------------------------------------------------------
 Nuclear Repulsion Energy =   201.7751351891 hartrees
 There are       21 alpha and       21 beta electrons
 Requested basis set is cc-pVDZ
 There are 54 shells and 114 basis functions

Total QAlloc Memory Limit   8000 MB
Mega-Array Size      2933 MB
MEM_STATIC part      3000 MB

                       Distance Matrix (Angstroms)
             C (  1)   C (  2)   C (  3)   C (  4)   C (  5)   C (  6)
   C (  2)  1.405784
   C (  3)  1.405592  2.434491
   C (  4)  2.435013  2.811455  1.405805
   C (  5)  2.434856  1.405859  2.810939  2.434375
   C (  6)  2.811778  2.435014  2.434666  1.405551  1.405582
   H (  7)  2.173420  3.429274  1.097292  2.172604  3.908230  3.428719
   H (  8)  3.429763  3.908847  2.173777  1.097392  3.428696  2.172648
   H (  9)  3.429404  2.173393  3.908222  3.428656  1.097284  2.172690
   H ( 10)  3.909118  3.429528  3.429216  2.173063  2.173159  1.097339
   H ( 11)  1.097149  2.173795  2.172413  3.428955  3.429658  3.908927
   H ( 12)  2.173204  1.097175  3.428949  3.908630  2.173171  3.429266
             H (  7)   H (  8)   H (  9)   H ( 10)   H ( 11)
   H (  8)  2.502907
   H (  9)  5.005514  4.334446
   H ( 10)  4.334770  2.502286  2.502530
   H ( 11)  2.502629  4.335296  4.336108  5.006266
   H ( 12)  4.335562  5.006021  2.503269  4.335413  2.504180
 
 A cutoff of  1.0D-13 yielded   1467 shell pairs
 There are      6615 function pairs (      7350 Cartesian)
 Smallest overlap matrix eigenvalue = 3.89E-04
 Guess from superposition of atomic densities
 Warning:  Energy on first SCF cycle will be non-variational
 A restricted Kohn-Sham SCF calculation will be
 performed using Pulay DIIS extrapolation
 Exchange:  B97D      Correlation:  B97-D
 Using SG-1 standard quadrature grid
 SCF converges when DIIS error is below 1.0E-07
 using 8 threads for integral computing 
 
 -------------------------------------------------------
 OpenMP Integral Computing Module                       
 Release: version 1.0, May 2013, Q-Chem Inc. Pittsburgh 
 -------------------------------------------------------
 Integral Job Info:
 Integral job number is                      20
 Integral operator is                         1
 short-range coefficients               -999999
 long-range coefficients                -999999
 Omega coefficients                           0
 if combine SR and LR in K              -999999
 Integral screening is                        1
 Integral computing path is                   2
 max size of driver memory is            800000
 size of driver memory is                593606
 size of scratch memory is               917280
 max col of scratch BK array               1296
 max len of scratch array in speh3          155
 max len of scratch index in speh4           18
 max int batch size is                       50
 min int batch size is                       15
 fixed nKL is                                15
 max L of basis functions is                  2
 order of int derivative is                   0
 number of shells is                         54
 number of basis is                         120
 number of cartesian basis is               120
 number of contracted shell pairs          1467
 number of primitive shell pairs           7602
 maxK2 (contraction) of shell pair           49
 max number of K2 of shell pair               1
 max number of CS2 of shell pair            186
 max number of PS2 of shell pair           1302
 mem total for path MDJ                   43626
 -------------------------------------------------------
         cpu   0.58 wall   0.08
 -------------------------------------------------------
 OpenMP BLAS3 based DFT computing Module                
 Release: version 1.0, May 2013, Q-Chem Inc. Pittsburgh 
 -------------------------------------------------------
in dftxc.C, eleTot sum is:42.000104, tauTot is:0.000000
 ---------------------------------------
  Cycle       Energy         DIIS Error
 ---------------------------------------
    1    -232.9997641199      7.04E-02
         cpu   1.53 wall   0.23
in dftxc.C, eleTot sum is:42.000111, tauTot is:0.000000
    2    -231.9383957700      8.60E-03
         cpu   1.55 wall   0.20
in dftxc.C, eleTot sum is:42.000168, tauTot is:0.000000
    3    -231.8579344450      1.12E-02
         cpu   1.54 wall   0.19
in dftxc.C, eleTot sum is:42.000140, tauTot is:0.000000
    4    -232.0870764247      9.79E-04
         cpu   1.54 wall   0.22
in dftxc.C, eleTot sum is:42.000139, tauTot is:0.000000
    5    -232.0886647451      2.37E-04
         cpu   1.54 wall   0.19
in dftxc.C, eleTot sum is:42.000140, tauTot is:0.000000
    6    -232.0887066791      1.85E-04
         cpu   1.50 wall   0.19
in dftxc.C, eleTot sum is:42.000139, tauTot is:0.000000
    7    -232.0887628385      1.19E-05
         cpu   1.46 wall   0.19
in dftxc.C, eleTot sum is:42.000139, tauTot is:0.000000
    8    -232.0887630545      4.99E-06
         cpu   1.57 wall   0.20
in dftxc.C, eleTot sum is:42.000139, tauTot is:0.000000
    9    -232.0887630745      3.94E-06
         cpu   1.43 wall   0.18
in dftxc.C, eleTot sum is:42.000139, tauTot is:0.000000
   10    -232.0887631067      2.09E-07
         cpu   1.39 wall   0.18
in dftxc.C, eleTot sum is:42.000139, tauTot is:0.000000
   11    -232.0887631068      2.39E-08 Convergence criterion met
 ---------------------------------------
 SCF time:  CPU 38.36 s  wall 5.06 s
 SCF   energy in the final basis set = -232.0887631068
 Total energy in the final basis set = -232.0887631068
 Analysis of SCF Wavefunction
 
 --------------------------------------------------------------
                    Orbital Energies (a.u.)
 --------------------------------------------------------------
 
 Alpha MOs
 -- Occupied --
 -9.919  -9.919  -9.919  -9.918  -9.918  -9.918  -0.773  -0.673
 -0.673  -0.540  -0.540  -0.464  -0.409  -0.392  -0.370  -0.370
 -0.320  -0.299  -0.299  -0.222  -0.221
 -- Virtual --
 -0.033  -0.033   0.040   0.082   0.083   0.109   0.116   0.116
  0.133   0.246   0.246   0.261   0.261   0.367   0.383   0.414
  0.435   0.466   0.466   0.469   0.469   0.490   0.490   0.491
  0.496   0.560   0.560   0.600   0.600   0.615   0.615   0.633
  0.666   0.750   0.776   0.815   0.838   0.838   0.866   0.947
  0.947   0.952   0.952   0.965   0.966   1.007   1.008   1.008
  1.154   1.229   1.229   1.397   1.410   1.410   1.448   1.463
  1.523   1.523   1.534   1.534   1.563   1.611   1.611   1.625
  1.625   1.669   1.717   1.717   1.758   1.768   1.768   1.777
  1.777   1.827   1.898   1.898   1.902   1.902   1.936   2.107
  2.168   2.273   2.335   2.335   2.335   2.335   2.531   2.531
  2.622   2.695   2.796   2.796   3.511
 --------------------------------------------------------------
 
          Ground-State Mulliken Net Atomic Charges

     Atom                 Charge (a.u.)
  ----------------------------------------
      1 C                     0.029137
      2 C                     0.028611
      3 C                     0.028855
      4 C                     0.028314
      5 C                     0.028874
      6 C                     0.028873
      7 H                    -0.028802
      8 H                    -0.028785
      9 H                    -0.028797
     10 H                    -0.028738
     11 H                    -0.028747
     12 H                    -0.028794
  ----------------------------------------
  Sum of atomic charges =     0.000000

 -----------------------------------------------------------------
                    Cartesian Multipole Moments
 -----------------------------------------------------------------
    Charge (ESU x 10^10)
                -0.0000
    Dipole Moment (Debye)
         X      -0.0003      Y      -0.0003      Z      -0.0002
       Tot       0.0005
    Quadrupole Moments (Debye-Ang)
        XX     -31.9317     XY       0.0016     YY     -31.9372
        XZ      -0.0763     YZ      -0.1037     ZZ     -38.9250
    Octopole Moments (Debye-Ang^2)
       XXX      -0.4833    XXY      -0.1707    XYY      -0.1638
       YYY      -0.5020    XXZ       2.7116    XYZ      -0.0012
       YYZ       2.7122    XZZ      -0.1834    YZZ      -0.1866
       ZZZ       9.9235
    Hexadecapole Moments (Debye-Ang^3)
      XXXX    -279.2667   XXXY       0.0004   XXYY     -93.0912
      XYYY       0.0167   YYYY    -279.2006   XXXZ       1.0571
      XXYZ       0.4783   XYYZ       0.3549   YYYZ       1.4376
      XXZZ     -62.2522   XYZZ       0.0061   YYZZ     -62.2327
      XZZZ       1.6163   YZZZ       2.1919   ZZZZ     -44.2311
 -----------------------------------------------------------------
 Calculating analytic gradient of the SCF energy
         cpu   2.42 wall   0.31
in dftxc.C, eleTot sum is:42.000139, tauTot is:0.000000
 Gradient of SCF Energy
            1           2           3           4           5           6
    1   0.0000210   0.0000217   0.0000056  -0.0000243  -0.0000006  -0.0000200
    2  -0.0000197   0.0000201  -0.0000213  -0.0000211   0.0000268   0.0000184
    3  -0.0000017  -0.0000042   0.0000015   0.0000057  -0.0000025   0.0000066
            7           8           9          10          11          12
    1  -0.0000237  -0.0000438   0.0000213  -0.0000242   0.0000232   0.0000439
    2  -0.0000405   0.0000033   0.0000379   0.0000379  -0.0000382  -0.0000036
    3   0.0000033   0.0000095  -0.0000022   0.0000046  -0.0000094  -0.0000112
 Max gradient component =       4.393E-05
 RMS gradient           =       2.180E-05
 Gradient time:  CPU 7.59 s  wall 0.97 s
 ######################################################
 ######################################################
 # Starting finite difference calculation for IDERIV  #
 Finite diff step size: 1.89e-03 a.u.
 ----------------------------------------------------------------
             Standard Nuclear Orientation (Angstroms)
    I     Atom           X                Y                Z
 ----------------------------------------------------------------
    1      C       1.3877213200     0.2648898400    -0.1039490900
    2      C       0.4708977200     1.3314077600    -0.1098628100
    3      C       0.9207101900    -1.0609687200    -0.0790290300
    4      C      -0.4607579600    -1.3207275100    -0.0600816900
    5      C      -0.9106021000     1.0715252500    -0.0909016400
    6      C      -1.3764308900    -0.2543875200    -0.0660127500
    7      H       1.6347642300    -1.8941282100    -0.0744418500
    8      H      -0.8249791500    -2.3557370100    -0.0409352300
    9      H      -1.6257322900     1.9037505200    -0.0955474000
   10      H      -2.4547933300    -0.4570437800    -0.0512522700
   11      H       2.4651182200     0.4663133600    -0.1189288600
   12      H       0.8341603700     2.3665212900    -0.1291533900
 ----------------------------------------------------------------
 Nuclear Repulsion Energy =   201.7597057302 hartrees
 There are       21 alpha and       21 beta electrons

                       Distance Matrix (Angstroms)
             C (  1)   C (  2)   C (  3)   C (  4)   C (  5)   C (  6)
   C (  2)  1.406436
   C (  3)  1.405924  2.434491
   C (  4)  2.435771  2.811455  1.405805
   C (  5)  2.435800  1.405859  2.810939  2.434375
   C (  6)  2.812761  2.435014  2.434666  1.405551  1.405582
   H (  7)  2.173306  3.429274  1.097292  2.172604  3.908230  3.428719
   H (  8)  3.430408  3.908847  2.173777  1.097392  3.428696  2.172648
   H (  9)  3.430282  2.173393  3.908222  3.428656  1.097284  2.172690
   H ( 10)  3.910100  3.429528  3.429216  2.173063  2.173159  1.097339
   H ( 11)  1.096166  2.173795  2.172413  3.428955  3.429658  3.908927
   H ( 12)  2.173458  1.097175  3.428949  3.908630  2.173171  3.429266
             H (  7)   H (  8)   H (  9)   H ( 10)   H ( 11)
   H (  8)  2.502907
   H (  9)  5.005514  4.334446
   H ( 10)  4.334770  2.502286  2.502530
   H ( 11)  2.502629  4.335296  4.336108  5.006266
   H ( 12)  4.335562  5.006021  2.503269  4.335413  2.504180
 
 Requested basis set is cc-pVDZ
 There are 54 shells and 114 basis functions
 A cutoff of  1.0D-13 yielded   1467 shell pairs
 There are      6615 function pairs (      7350 Cartesian)
 Smallest overlap matrix eigenvalue = 3.90E-04
 Guess MOs from SCF MO coefficient file
Reading MOs from coefficient file
Reading MOs from coefficient file
 A restricted Kohn-Sham SCF calculation will be
 performed using Pulay DIIS extrapolation
 Exchange:  B97D      Correlation:  B97-D
 Using SG-1 standard quadrature grid
 SCF converges when DIIS error is below 1.0E-07
 using 8 threads for integral computing 
         cpu   1.56 wall   0.20
 -------------------------------------------------------
 OpenMP BLAS3 based DFT computing Module                
 Release: version 1.0, May 2013, Q-Chem Inc. Pittsburgh 
 -------------------------------------------------------
in dftxc.C, eleTot sum is:42.000075, tauTot is:0.000000
 ---------------------------------------
  Cycle       Energy         DIIS Error
 ---------------------------------------
    1    -232.0885877119      4.36E-05
         cpu   1.56 wall   0.20
in dftxc.C, eleTot sum is:42.000138, tauTot is:0.000000
    2    -232.0887614323      1.04E-05
         cpu   1.49 wall   0.21
in dftxc.C, eleTot sum is:42.000138, tauTot is:0.000000
    3    -232.0887611874      1.57E-05
         cpu   1.47 wall   0.18
in dftxc.C, eleTot sum is:42.000138, tauTot is:0.000000
    4    -232.0887616114      3.42E-06
         cpu   1.44 wall   0.18
in dftxc.C, eleTot sum is:42.000138, tauTot is:0.000000
    5    -232.0887616320      1.47E-06
         cpu   1.42 wall   0.18
in dftxc.C, eleTot sum is:42.000138, tauTot is:0.000000
    6    -232.0887616362      2.47E-07
         cpu   1.36 wall   0.17
in dftxc.C, eleTot sum is:42.000138, tauTot is:0.000000
    7    -232.0887616363      4.51E-08 Convergence criterion met
 ---------------------------------------
 SCF time:  CPU 24.82 s  wall 3.22 s
 SCF   energy in the final basis set = -232.0887616363
 Total energy in the final basis set = -232.0887616363
 Analysis of SCF Wavefunction
 
 --------------------------------------------------------------
                    Orbital Energies (a.u.)
 --------------------------------------------------------------
 
 Alpha MOs
 -- Occupied --
 -9.919  -9.919  -9.919  -9.918  -9.918  -9.918  -0.773  -0.673
 -0.673  -0.540  -0.540  -0.464  -0.409  -0.392  -0.370  -0.370
 -0.320  -0.299  -0.299  -0.222  -0.221
 -- Virtual --
 -0.033  -0.033   0.040   0.083   0.083   0.109   0.116   0.116
  0.133   0.246   0.246   0.260   0.261   0.367   0.383   0.414
  0.435   0.466   0.466   0.469   0.469   0.490   0.490   0.491
  0.496   0.560   0.560   0.600   0.600   0.615   0.616   0.633
  0.666   0.750   0.776   0.815   0.838   0.838   0.866   0.947
  0.947   0.952   0.952   0.965   0.965   1.007   1.007   1.008
  1.155   1.229   1.229   1.397   1.410   1.410   1.448   1.463
  1.523   1.523   1.534   1.534   1.563   1.611   1.611   1.624
  1.625   1.669   1.717   1.717   1.758   1.768   1.768   1.777
  1.777   1.827   1.898   1.898   1.902   1.902   1.936   2.107
  2.168   2.274   2.335   2.335   2.335   2.336   2.531   2.531
  2.622   2.695   2.796   2.796   3.511
 --------------------------------------------------------------
 
          Ground-State Mulliken Net Atomic Charges

     Atom                 Charge (a.u.)
  ----------------------------------------
      1 C                     0.029585
      2 C                     0.028342
      3 C                     0.028727
      4 C                     0.028379
      5 C                     0.028966
      6 C                     0.028842
      7 H                    -0.028786
      8 H                    -0.028777
      9 H                    -0.028790
     10 H                    -0.028719
     11 H                    -0.029008
     12 H                    -0.028762
  ----------------------------------------
  Sum of atomic charges =    -0.000000

 -----------------------------------------------------------------
                    Cartesian Multipole Moments
 -----------------------------------------------------------------
    Charge (ESU x 10^10)
                 0.0000
    Dipole Moment (Debye)
         X       0.0003      Y      -0.0002      Z      -0.0003
       Tot       0.0004
    Quadrupole Moments (Debye-Ang)
        XX     -31.9254     XY       0.0036     YY     -31.9401
        XZ      -0.0765     YZ      -0.1037     ZZ     -38.9262
    Octopole Moments (Debye-Ang^2)
       XXX      -0.4811    XXY      -0.1644    XYY      -0.1734
       YYY      -0.5050    XXZ       2.7108    XYZ      -0.0014
       YYZ       2.7125    XZZ      -0.1888    YZZ      -0.1871
       ZZZ       9.9238
    Hexadecapole Moments (Debye-Ang^3)
      XXXX    -279.2776   XXXY       0.0114   XXYY     -93.1033
      XYYY       0.0194   YYYY    -279.2254   XXXZ       1.0562
      XXYZ       0.4777   XYYZ       0.3557   YYYZ       1.4380
      XXZZ     -62.2626   XYZZ       0.0057   YYZZ     -62.2356
      XZZZ       1.6177   YZZZ       2.1920   ZZZZ     -44.2345
 -----------------------------------------------------------------
 Calculating analytic gradient of the SCF energy
         cpu   2.41 wall   0.31
in dftxc.C, eleTot sum is:42.000138, tauTot is:0.000000
 Gradient of SCF Energy
            1           2           3           4           5           6
    1   0.0013573  -0.0003674  -0.0002589  -0.0000374  -0.0000787  -0.0000256
    2   0.0000056   0.0002692  -0.0001998  -0.0000842   0.0000530   0.0000381
    3  -0.0000141  -0.0000050   0.0000059   0.0000068  -0.0000019   0.0000062
            7           8           9          10          11          12
    1  -0.0000073  -0.0000542   0.0000122  -0.0000231  -0.0005786   0.0000617
    2  -0.0000002   0.0000012   0.0000348   0.0000385  -0.0001309  -0.0000253
    3   0.0000026   0.0000098  -0.0000019   0.0000045  -0.0000020  -0.0000110
 Max gradient component =       1.357E-03
 RMS gradient           =       2.656E-04
 Gradient time:  CPU 7.48 s  wall 0.99 s
 ----------------------------------------------------------------
             Standard Nuclear Orientation (Angstroms)
    I     Atom           X                Y                Z
 ----------------------------------------------------------------
    1      C       1.3857213200     0.2648898400    -0.1039490900
    2      C       0.4708977200     1.3314077600    -0.1098628100
    3      C       0.9207101900    -1.0609687200    -0.0790290300
    4      C      -0.4607579600    -1.3207275100    -0.0600816900
    5      C      -0.9106021000     1.0715252500    -0.0909016400
    6      C      -1.3764308900    -0.2543875200    -0.0660127500
    7      H       1.6347642300    -1.8941282100    -0.0744418500
    8      H      -0.8249791500    -2.3557370100    -0.0409352300
    9      H      -1.6257322900     1.9037505200    -0.0955474000
   10      H      -2.4547933300    -0.4570437800    -0.0512522700
   11      H       2.4651182200     0.4663133600    -0.1189288600
   12      H       0.8341603700     2.3665212900    -0.1291533900
 ----------------------------------------------------------------
 Nuclear Repulsion Energy =   201.7905709525 hartrees
 There are       21 alpha and       21 beta electrons

                       Distance Matrix (Angstroms)
             C (  1)   C (  2)   C (  3)   C (  4)   C (  5)   C (  6)
   C (  2)  1.405133
   C (  3)  1.405261  2.434491
   C (  4)  2.434254  2.811455  1.405805
   C (  5)  2.433913  1.405859  2.810939  2.434375
   C (  6)  2.810796  2.435014  2.434666  1.405551  1.405582
   H (  7)  2.173534  3.429274  1.097292  2.172604  3.908230  3.428719
   H (  8)  3.429118  3.908847  2.173777  1.097392  3.428696  2.172648
   H (  9)  3.428526  2.173393  3.908222  3.428656  1.097284  2.172690
   H ( 10)  3.908135  3.429528  3.429216  2.173063  2.173159  1.097339
   H ( 11)  1.098132  2.173795  2.172413  3.428955  3.429658  3.908927
   H ( 12)  2.172949  1.097175  3.428949  3.908630  2.173171  3.429266
             H (  7)   H (  8)   H (  9)   H ( 10)   H ( 11)
   H (  8)  2.502907
   H (  9)  5.005514  4.334446
   H ( 10)  4.334770  2.502286  2.502530
   H ( 11)  2.502629  4.335296  4.336108  5.006266
   H ( 12)  4.335562  5.006021  2.503269  4.335413  2.504180
 
 Requested basis set is cc-pVDZ
 There are 54 shells and 114 basis functions
 A cutoff of  1.0D-13 yielded   1467 shell pairs
 There are      6615 function pairs (      7350 Cartesian)
 Smallest overlap matrix eigenvalue = 3.89E-04
 Guess MOs from SCF MO coefficient file
Reading MOs from coefficient file
Reading MOs from coefficient file
 A restricted Kohn-Sham SCF calculation will be
 performed using Pulay DIIS extrapolation
 Exchange:  B97D      Correlation:  B97-D
 Using SG-1 standard quadrature grid
 SCF converges when DIIS error is below 1.0E-07
 using 8 threads for integral computing 
         cpu   1.56 wall   0.20
 -------------------------------------------------------
 OpenMP BLAS3 based DFT computing Module                
 Release: version 1.0, May 2013, Q-Chem Inc. Pittsburgh 
 -------------------------------------------------------
in dftxc.C, eleTot sum is:42.000261, tauTot is:0.000000
 ---------------------------------------
  Cycle       Energy         DIIS Error
 ---------------------------------------
    1    -232.0891102313      8.71E-05
         cpu   1.90 wall   0.25
in dftxc.C, eleTot sum is:42.000141, tauTot is:0.000000
    2    -232.0887612449      2.07E-05
         cpu   1.49 wall   0.19
in dftxc.C, eleTot sum is:42.000141, tauTot is:0.000000
    3    -232.0887602779      3.13E-05
         cpu   1.48 wall   0.19
in dftxc.C, eleTot sum is:42.000141, tauTot is:0.000000
    4    -232.0887619588      6.81E-06
         cpu   1.44 wall   0.19
in dftxc.C, eleTot sum is:42.000141, tauTot is:0.000000
    5    -232.0887620402      2.94E-06
         cpu   1.42 wall   0.18
in dftxc.C, eleTot sum is:42.000141, tauTot is:0.000000
    6    -232.0887620567      4.90E-07
         cpu   1.39 wall   0.18
in dftxc.C, eleTot sum is:42.000141, tauTot is:0.000000
    7    -232.0887620571      9.05E-08 Convergence criterion met
 ---------------------------------------
 SCF time:  CPU 24.62 s  wall 3.23 s
 SCF   energy in the final basis set = -232.0887620571
 Total energy in the final basis set = -232.0887620571
 Analysis of SCF Wavefunction
 
 --------------------------------------------------------------
                    Orbital Energies (a.u.)
 --------------------------------------------------------------
 
 Alpha MOs
 -- Occupied --
 -9.919  -9.919  -9.919  -9.918  -9.918  -9.918  -0.773  -0.673
 -0.673  -0.540  -0.540  -0.464  -0.409  -0.392  -0.370  -0.370
 -0.320  -0.299  -0.299  -0.222  -0.221
 -- Virtual --
 -0.033  -0.033   0.040   0.082   0.082   0.109   0.116   0.116
  0.133   0.246   0.246   0.261   0.261   0.367   0.383   0.414
  0.435   0.466   0.466   0.469   0.469   0.490   0.490   0.491
  0.496   0.560   0.560   0.600   0.600   0.615   0.615   0.633
  0.666   0.750   0.776   0.815   0.838   0.838   0.866   0.947
  0.947   0.952   0.952   0.965   0.966   1.008   1.008   1.008
  1.154   1.229   1.229   1.397   1.410   1.410   1.448   1.463
  1.523   1.523   1.534   1.534   1.562   1.611   1.611   1.625
  1.625   1.670   1.717   1.717   1.757   1.768   1.768   1.777
  1.777   1.828   1.898   1.898   1.902   1.902   1.936   2.107
  2.168   2.273   2.335   2.335   2.335   2.335   2.531   2.531
  2.622   2.695   2.796   2.796   3.511
 --------------------------------------------------------------
 
          Ground-State Mulliken Net Atomic Charges

     Atom                 Charge (a.u.)
  ----------------------------------------
      1 C                     0.028689
      2 C                     0.028880
      3 C                     0.028984
      4 C                     0.028250
      5 C                     0.028782
      6 C                     0.028901
      7 H                    -0.028817
      8 H                    -0.028794
      9 H                    -0.028804
     10 H                    -0.028757
     11 H                    -0.028488
     12 H                    -0.028826
  ----------------------------------------
  Sum of atomic charges =    -0.000000

 -----------------------------------------------------------------
                    Cartesian Multipole Moments
 -----------------------------------------------------------------
    Charge (ESU x 10^10)
                -0.0000
    Dipole Moment (Debye)
         X      -0.0009      Y      -0.0005      Z      -0.0002
       Tot       0.0011
    Quadrupole Moments (Debye-Ang)
        XX     -31.9379     XY      -0.0004     YY     -31.9342
        XZ      -0.0762     YZ      -0.1037     ZZ     -38.9238
    Octopole Moments (Debye-Ang^2)
       XXX      -0.4854    XXY      -0.1770    XYY      -0.1542
       YYY      -0.4991    XXZ       2.7125    XYZ      -0.0011
       YYZ       2.7119    XZZ      -0.1781    YZZ      -0.1862
       ZZZ       9.9232
    Hexadecapole Moments (Debye-Ang^3)
      XXXX    -279.2560   XXXY      -0.0107   XXYY     -93.0791
      XYYY       0.0140   YYYY    -279.1756   XXXZ       1.0580
      XXYZ       0.4790   XYYZ       0.3541   YYYZ       1.4372
      XXZZ     -62.2419   XYZZ       0.0064   YYZZ     -62.2298
      XZZZ       1.6149   YZZZ       2.1917   ZZZZ     -44.2277
 -----------------------------------------------------------------
 Calculating analytic gradient of the SCF energy
         cpu   2.42 wall   0.35
in dftxc.C, eleTot sum is:42.000141, tauTot is:0.000000
 Gradient of SCF Energy
            1           2           3           4           5           6
    1  -0.0013122   0.0004116   0.0002697  -0.0000112   0.0000777  -0.0000144
    2  -0.0000429  -0.0002308   0.0001578   0.0000422   0.0000003  -0.0000013
    3   0.0000106  -0.0000035  -0.0000029   0.0000045  -0.0000031   0.0000070
            7           8           9          10          11          12
    1  -0.0000401  -0.0000333   0.0000304  -0.0000253   0.0006209   0.0000262
    2  -0.0000808   0.0000053   0.0000410   0.0000374   0.0000535   0.0000183
    3   0.0000041   0.0000092  -0.0000025   0.0000046  -0.0000167  -0.0000114
 Max gradient component =       1.312E-03
 RMS gradient           =       2.612E-04
 Gradient time:  CPU 7.76 s  wall 1.03 s
 ----------------------------------------------------------------
             Standard Nuclear Orientation (Angstroms)
    I     Atom           X                Y                Z
 ----------------------------------------------------------------
    1      C       1.3867213200     0.2658898400    -0.1039490900
    2      C       0.4708977200     1.3314077600    -0.1098628100
    3      C       0.9207101900    -1.0609687200    -0.0790290300
    4      C      -0.4607579600    -1.3207275100    -0.0600816900
    5      C      -0.9106021000     1.0715252500    -0.0909016400
    6      C      -1.3764308900    -0.2543875200    -0.0660127500
    7      H       1.6347642300    -1.8941282100    -0.0744418500
    8      H      -0.8249791500    -2.3557370100    -0.0409352300
    9      H      -1.6257322900     1.9037505200    -0.0955474000
   10      H      -2.4547933300    -0.4570437800    -0.0512522700
   11      H       2.4651182200     0.4663133600    -0.1189288600
   12      H       0.8341603700     2.3665212900    -0.1291533900
 ----------------------------------------------------------------
 Nuclear Repulsion Energy =   201.7722383793 hartrees
 There are       21 alpha and       21 beta electrons

                       Distance Matrix (Angstroms)
             C (  1)   C (  2)   C (  3)   C (  4)   C (  5)   C (  6)
   C (  2)  1.405025
   C (  3)  1.406535  2.434491
   C (  4)  2.435664  2.811455  1.405805
   C (  5)  2.434525  1.405859  2.810939  2.434375
   C (  6)  2.811963  2.435014  2.434666  1.405551  1.405582
   H (  7)  2.174413  3.429274  1.097292  2.172604  3.908230  3.428719
   H (  8)  3.430527  3.908847  2.173777  1.097392  3.428696  2.172648
   H (  9)  3.428926  2.173393  3.908222  3.428656  1.097284  2.172690
   H ( 10)  3.909302  3.429528  3.429216  2.173063  2.173159  1.097339
   H ( 11)  1.096966  2.173795  2.172413  3.428955  3.429658  3.908927
   H ( 12)  2.172236  1.097175  3.428949  3.908630  2.173171  3.429266
             H (  7)   H (  8)   H (  9)   H ( 10)   H ( 11)
   H (  8)  2.502907
   H (  9)  5.005514  4.334446
   H ( 10)  4.334770  2.502286  2.502530
   H ( 11)  2.502629  4.335296  4.336108  5.006266
   H ( 12)  4.335562  5.006021  2.503269  4.335413  2.504180
 
 Requested basis set is cc-pVDZ
 There are 54 shells and 114 basis functions
 A cutoff of  1.0D-13 yielded   1467 shell pairs
 There are      6615 function pairs (      7350 Cartesian)
 Smallest overlap matrix eigenvalue = 3.90E-04
 Guess MOs from SCF MO coefficient file
Reading MOs from coefficient file
Reading MOs from coefficient file
 A restricted Kohn-Sham SCF calculation will be
 performed using Pulay DIIS extrapolation
 Exchange:  B97D      Correlation:  B97-D
 Using SG-1 standard quadrature grid
 SCF converges when DIIS error is below 1.0E-07
 using 8 threads for integral computing 
         cpu   1.55 wall   0.20
 -------------------------------------------------------
 OpenMP BLAS3 based DFT computing Module                
 Release: version 1.0, May 2013, Q-Chem Inc. Pittsburgh 
 -------------------------------------------------------
in dftxc.C, eleTot sum is:42.000062, tauTot is:0.000000
 ---------------------------------------
  Cycle       Energy         DIIS Error
 ---------------------------------------
    1    -232.0885546332      6.36E-05
         cpu   1.55 wall   0.20
in dftxc.C, eleTot sum is:42.000138, tauTot is:0.000000
    2    -232.0887614218      1.61E-05
         cpu   1.52 wall   0.21
in dftxc.C, eleTot sum is:42.000138, tauTot is:0.000000
    3    -232.0887602796      2.91E-05
         cpu   1.46 wall   0.19
in dftxc.C, eleTot sum is:42.000138, tauTot is:0.000000
    4    -232.0887618581      5.46E-06
         cpu   1.45 wall   0.19
in dftxc.C, eleTot sum is:42.000138, tauTot is:0.000000
    5    -232.0887619142      1.77E-06
         cpu   1.42 wall   0.18
in dftxc.C, eleTot sum is:42.000138, tauTot is:0.000000
    6    -232.0887619198      3.06E-07
         cpu   1.38 wall   0.18
in dftxc.C, eleTot sum is:42.000138, tauTot is:0.000000
    7    -232.0887619200      5.64E-08 Convergence criterion met
 ---------------------------------------
 SCF time:  CPU 25.05 s  wall 3.26 s
 SCF   energy in the final basis set = -232.0887619200
 Total energy in the final basis set = -232.0887619200
 Analysis of SCF Wavefunction
 
 --------------------------------------------------------------
                    Orbital Energies (a.u.)
 --------------------------------------------------------------
 
 Alpha MOs
 -- Occupied --
 -9.919  -9.919  -9.919  -9.918  -9.918  -9.918  -0.773  -0.674
 -0.673  -0.540  -0.540  -0.464  -0.409  -0.392  -0.370  -0.370
 -0.320  -0.299  -0.299  -0.222  -0.221
 -- Virtual --
 -0.033  -0.033   0.040   0.082   0.083   0.109   0.116   0.116
  0.133   0.246   0.246   0.260   0.261   0.367   0.383   0.414
  0.435   0.466   0.466   0.469   0.469   0.490   0.490   0.491
  0.496   0.560   0.560   0.600   0.600   0.615   0.616   0.633
  0.666   0.750   0.776   0.815   0.838   0.838   0.866   0.947
  0.947   0.952   0.952   0.965   0.966   1.007   1.008   1.008
  1.154   1.229   1.229   1.397   1.410   1.410   1.448   1.463
  1.523   1.523   1.534   1.534   1.563   1.611   1.611   1.625
  1.625   1.669   1.717   1.717   1.758   1.768   1.768   1.777
  1.777   1.827   1.898   1.898   1.902   1.902   1.936   2.107
  2.168   2.273   2.334   2.335   2.335   2.336   2.531   2.531
  2.622   2.695   2.796   2.797   3.511
 --------------------------------------------------------------
 
          Ground-State Mulliken Net Atomic Charges

     Atom                 Charge (a.u.)
  ----------------------------------------
      1 C                     0.029221
      2 C                     0.028942
      3 C                     0.028450
      4 C                     0.028398
      5 C                     0.028817
      6 C                     0.028868
      7 H                    -0.028755
      8 H                    -0.028787
      9 H                    -0.028792
     10 H                    -0.028734
     11 H                    -0.028795
     12 H                    -0.028832
  ----------------------------------------
  Sum of atomic charges =     0.000000

 -----------------------------------------------------------------
                    Cartesian Multipole Moments
 -----------------------------------------------------------------
    Charge (ESU x 10^10)
                -0.0000
    Dipole Moment (Debye)
         X      -0.0002      Y      -0.0006      Z      -0.0002
       Tot       0.0006
    Quadrupole Moments (Debye-Ang)
        XX     -31.9301     XY       0.0010     YY     -31.9382
        XZ      -0.0764     YZ      -0.1037     ZZ     -38.9252
    Octopole Moments (Debye-Ang^2)
       XXX      -0.4779    XXY      -0.1782    XYY      -0.1659
       YYY      -0.5191    XXZ       2.7114    XYZ      -0.0011
       YYZ       2.7124    XZZ      -0.1838    YZZ      -0.1899
       ZZZ       9.9235
    Hexadecapole Moments (Debye-Ang^3)
      XXXX    -279.2485   XXXY      -0.0238   XXYY     -93.0931
      XYYY      -0.0099   YYYY    -279.2267   XXXZ       1.0564
      XXYZ       0.4791   XYYZ       0.3552   YYYZ       1.4395
      XXZZ     -62.2521   XYZZ       0.0006   YYZZ     -62.2354
      XZZZ       1.6163   YZZZ       2.1929   ZZZZ     -44.2317
 -----------------------------------------------------------------
 Calculating analytic gradient of the SCF energy
         cpu   2.56 wall   0.34
in dftxc.C, eleTot sum is:42.000138, tauTot is:0.000000
 Gradient of SCF Energy
            1           2           3           4           5           6
    1   0.0000433   0.0001634  -0.0000629  -0.0001642   0.0001019  -0.0000002
    2   0.0011877  -0.0004300  -0.0005942  -0.0000030   0.0001095  -0.0000892
    3  -0.0000163  -0.0000008   0.0000091   0.0000071  -0.0000047   0.0000078
            7           8           9          10          11          12
    1  -0.0000416  -0.0000433   0.0000158  -0.0000236  -0.0000691   0.0000806
    2  -0.0000702   0.0000072   0.0000405   0.0000358  -0.0001589  -0.0000350
    3   0.0000040   0.0000096  -0.0000020   0.0000046  -0.0000074  -0.0000110
 Max gradient component =       1.188E-03
 RMS gradient           =       2.409E-04
 Gradient time:  CPU 7.51 s  wall 1.01 s
 ----------------------------------------------------------------
             Standard Nuclear Orientation (Angstroms)
    I     Atom           X                Y                Z
 ----------------------------------------------------------------
    1      C       1.3867213200     0.2638898400    -0.1039490900
    2      C       0.4708977200     1.3314077600    -0.1098628100
    3      C       0.9207101900    -1.0609687200    -0.0790290300
    4      C      -0.4607579600    -1.3207275100    -0.0600816900
    5      C      -0.9106021000     1.0715252500    -0.0909016400
    6      C      -1.3764308900    -0.2543875200    -0.0660127500
    7      H       1.6347642300    -1.8941282100    -0.0744418500
    8      H      -0.8249791500    -2.3557370100    -0.0409352300
    9      H      -1.6257322900     1.9037505200    -0.0955474000
   10      H      -2.4547933300    -0.4570437800    -0.0512522700
   11      H       2.4651182200     0.4663133600    -0.1189288600
   12      H       0.8341603700     2.3665212900    -0.1291533900
 ----------------------------------------------------------------
 Nuclear Repulsion Energy =   201.7780461253 hartrees
 There are       21 alpha and       21 beta electrons

                       Distance Matrix (Angstroms)
             C (  1)   C (  2)   C (  3)   C (  4)   C (  5)   C (  6)
   C (  2)  1.406543
   C (  3)  1.404649  2.434491
   C (  4)  2.434362  2.811455  1.405805
   C (  5)  2.435188  1.405859  2.810939  2.434375
   C (  6)  2.811594  2.435014  2.434666  1.405551  1.405582
   H (  7)  2.172427  3.429274  1.097292  2.172604  3.908230  3.428719
   H (  8)  3.428999  3.908847  2.173777  1.097392  3.428696  2.172648
   H (  9)  3.429882  2.173393  3.908222  3.428656  1.097284  2.172690
   H ( 10)  3.908933  3.429528  3.429216  2.173063  2.173159  1.097339
   H ( 11)  1.097333  2.173795  2.172413  3.428955  3.429658  3.908927
   H ( 12)  2.174171  1.097175  3.428949  3.908630  2.173171  3.429266
             H (  7)   H (  8)   H (  9)   H ( 10)   H ( 11)
   H (  8)  2.502907
   H (  9)  5.005514  4.334446
   H ( 10)  4.334770  2.502286  2.502530
   H ( 11)  2.502629  4.335296  4.336108  5.006266
   H ( 12)  4.335562  5.006021  2.503269  4.335413  2.504180
 
 Requested basis set is cc-pVDZ
 There are 54 shells and 114 basis functions
 A cutoff of  1.0D-13 yielded   1467 shell pairs
 There are      6615 function pairs (      7350 Cartesian)
 Smallest overlap matrix eigenvalue = 3.89E-04
 Guess MOs from SCF MO coefficient file
Reading MOs from coefficient file
Reading MOs from coefficient file
 A restricted Kohn-Sham SCF calculation will be
 performed using Pulay DIIS extrapolation
 Exchange:  B97D      Correlation:  B97-D
 Using SG-1 standard quadrature grid
 SCF converges when DIIS error is below 1.0E-07
 using 8 threads for integral computing 
         cpu   1.56 wall   0.20
 -------------------------------------------------------
 OpenMP BLAS3 based DFT computing Module                
 Release: version 1.0, May 2013, Q-Chem Inc. Pittsburgh 
 -------------------------------------------------------
in dftxc.C, eleTot sum is:42.000163, tauTot is:0.000000
 ---------------------------------------
  Cycle       Energy         DIIS Error
 ---------------------------------------
    1    -232.0888294346      9.67E-05
         cpu   1.56 wall   0.20
in dftxc.C, eleTot sum is:42.000141, tauTot is:0.000000
    2    -232.0887605994      2.67E-05
         cpu   1.49 wall   0.19
in dftxc.C, eleTot sum is:42.000141, tauTot is:0.000000
    3    -232.0887554993      5.69E-05
         cpu   1.49 wall   0.19
in dftxc.C, eleTot sum is:42.000141, tauTot is:0.000000
    4    -232.0887619441      5.95E-06
         cpu   1.45 wall   0.19
in dftxc.C, eleTot sum is:42.000141, tauTot is:0.000000
    5    -232.0887620053      1.61E-06
         cpu   1.42 wall   0.18
in dftxc.C, eleTot sum is:42.000141, tauTot is:0.000000
    6    -232.0887620100      1.60E-07
         cpu   1.37 wall   0.18
in dftxc.C, eleTot sum is:42.000141, tauTot is:0.000000
    7    -232.0887620100      5.78E-08 Convergence criterion met
 ---------------------------------------
 SCF time:  CPU 24.35 s  wall 3.14 s
 SCF   energy in the final basis set = -232.0887620100
 Total energy in the final basis set = -232.0887620100
 Analysis of SCF Wavefunction
 
 --------------------------------------------------------------
                    Orbital Energies (a.u.)
 --------------------------------------------------------------
 
 Alpha MOs
 -- Occupied --
 -9.919  -9.919  -9.919  -9.918  -9.918  -9.918  -0.773  -0.674
 -0.673  -0.540  -0.540  -0.464  -0.409  -0.392  -0.370  -0.370
 -0.320  -0.299  -0.299  -0.222  -0.221
 -- Virtual --
 -0.033  -0.033   0.040   0.082   0.083   0.109   0.116   0.116
  0.133   0.246   0.246   0.261   0.261   0.367   0.383   0.414
  0.435   0.466   0.466   0.469   0.469   0.490   0.490   0.491
  0.496   0.560   0.560   0.600   0.600   0.615   0.615   0.633
  0.666   0.750   0.776   0.815   0.838   0.838   0.866   0.947
  0.947   0.952   0.952   0.965   0.966   1.007   1.008   1.008
  1.154   1.229   1.229   1.397   1.410   1.410   1.448   1.463
  1.523   1.523   1.534   1.534   1.563   1.611   1.611   1.625
  1.625   1.669   1.717   1.717   1.757   1.768   1.768   1.777
  1.777   1.827   1.898   1.898   1.902   1.902   1.936   2.107
  2.168   2.273   2.335   2.335   2.335   2.336   2.531   2.532
  2.622   2.695   2.796   2.796   3.511
 --------------------------------------------------------------
 
          Ground-State Mulliken Net Atomic Charges

     Atom                 Charge (a.u.)
  ----------------------------------------
      1 C                     0.029050
      2 C                     0.028281
      3 C                     0.029262
      4 C                     0.028230
      5 C                     0.028930
      6 C                     0.028877
      7 H                    -0.028848
      8 H                    -0.028783
      9 H                    -0.028802
     10 H                    -0.028742
     11 H                    -0.028698
     12 H                    -0.028757
  ----------------------------------------
  Sum of atomic charges =    -0.000000

 -----------------------------------------------------------------
                    Cartesian Multipole Moments
 -----------------------------------------------------------------
    Charge (ESU x 10^10)
                 0.0000
    Dipole Moment (Debye)
         X      -0.0005      Y      -0.0001      Z      -0.0002
       Tot       0.0005
    Quadrupole Moments (Debye-Ang)
        XX     -31.9332     XY       0.0023     YY     -31.9362
        XZ      -0.0763     YZ      -0.1037     ZZ     -38.9248
    Octopole Moments (Debye-Ang^2)
       XXX      -0.4887    XXY      -0.1631    XYY      -0.1617
       YYY      -0.4849    XXZ       2.7118    XYZ      -0.0014
       YYZ       2.7120    XZZ      -0.1830    YZZ      -0.1834
       ZZZ       9.9235
    Hexadecapole Moments (Debye-Ang^3)
      XXXX    -279.2849   XXXY       0.0245   XXYY     -93.0893
      XYYY       0.0433   YYYY    -279.1745   XXXZ       1.0578
      XXYZ       0.4776   XYYZ       0.3546   YYYZ       1.4357
      XXZZ     -62.2524   XYZZ       0.0115   YYZZ     -62.2301
      XZZZ       1.6164   YZZZ       2.1908   ZZZZ     -44.2305
 -----------------------------------------------------------------
 Calculating analytic gradient of the SCF energy
         cpu   2.80 wall   0.37
in dftxc.C, eleTot sum is:42.000141, tauTot is:0.000000
 Gradient of SCF Energy
            1           2           3           4           5           6
    1  -0.0000049  -0.0001182   0.0000755   0.0001157  -0.0001031  -0.0000398
    2  -0.0012293   0.0004683   0.0005557  -0.0000392  -0.0000560   0.0001262
    3   0.0000130  -0.0000077  -0.0000061   0.0000042  -0.0000004   0.0000054
            7           8           9          10          11          12
    1  -0.0000058  -0.0000443   0.0000269  -0.0000248   0.0001156   0.0000073
    2  -0.0000107  -0.0000008   0.0000354   0.0000400   0.0000826   0.0000278
    3   0.0000026   0.0000094  -0.0000024   0.0000046  -0.0000114  -0.0000113
 Max gradient component =       1.229E-03
 RMS gradient           =       2.434E-04
 Gradient time:  CPU 7.86 s  wall 1.04 s
 ----------------------------------------------------------------
             Standard Nuclear Orientation (Angstroms)
    I     Atom           X                Y                Z
 ----------------------------------------------------------------
    1      C       1.3867213200     0.2648898400    -0.1029490900
    2      C       0.4708977200     1.3314077600    -0.1098628100
    3      C       0.9207101900    -1.0609687200    -0.0790290300
    4      C      -0.4607579600    -1.3207275100    -0.0600816900
    5      C      -0.9106021000     1.0715252500    -0.0909016400
    6      C      -1.3764308900    -0.2543875200    -0.0660127500
    7      H       1.6347642300    -1.8941282100    -0.0744418500
    8      H      -0.8249791500    -2.3557370100    -0.0409352300
    9      H      -1.6257322900     1.9037505200    -0.0955474000
   10      H      -2.4547933300    -0.4570437800    -0.0512522700
   11      H       2.4651182200     0.4663133600    -0.1189288600
   12      H       0.8341603700     2.3665212900    -0.1291533900
 ----------------------------------------------------------------
 Nuclear Repulsion Energy =   201.7753367362 hartrees
 There are       21 alpha and       21 beta electrons

                       Distance Matrix (Angstroms)
             C (  1)   C (  2)   C (  3)   C (  4)   C (  5)   C (  6)
   C (  2)  1.405788
   C (  3)  1.405574  2.434491
   C (  4)  2.434995  2.811455  1.405805
   C (  5)  2.434851  1.405859  2.810939  2.434375
   C (  6)  2.811765  2.435014  2.434666  1.405551  1.405582
   H (  7)  2.173407  3.429274  1.097292  2.172604  3.908230  3.428719
   H (  8)  3.429745  3.908847  2.173777  1.097392  3.428696  2.172648
   H (  9)  3.429402  2.173393  3.908222  3.428656  1.097284  2.172690
   H ( 10)  3.909104  3.429528  3.429216  2.173063  2.173159  1.097339
   H ( 11)  1.097163  2.173795  2.172413  3.428955  3.429658  3.908927
   H ( 12)  2.173215  1.097175  3.428949  3.908630  2.173171  3.429266
             H (  7)   H (  8)   H (  9)   H ( 10)   H ( 11)
   H (  8)  2.502907
   H (  9)  5.005514  4.334446
   H ( 10)  4.334770  2.502286  2.502530
   H ( 11)  2.502629  4.335296  4.336108  5.006266
   H ( 12)  4.335562  5.006021  2.503269  4.335413  2.504180
 
 Requested basis set is cc-pVDZ
 There are 54 shells and 114 basis functions
 A cutoff of  1.0D-13 yielded   1467 shell pairs
 There are      6615 function pairs (      7350 Cartesian)
 Smallest overlap matrix eigenvalue = 3.89E-04
 Guess MOs from SCF MO coefficient file
Reading MOs from coefficient file
Reading MOs from coefficient file
 A restricted Kohn-Sham SCF calculation will be
 performed using Pulay DIIS extrapolation
 Exchange:  B97D      Correlation:  B97-D
 Using SG-1 standard quadrature grid
 SCF converges when DIIS error is below 1.0E-07
 using 8 threads for integral computing 
         cpu   1.56 wall   0.20
 -------------------------------------------------------
 OpenMP BLAS3 based DFT computing Module                
 Release: version 1.0, May 2013, Q-Chem Inc. Pittsburgh 
 -------------------------------------------------------
in dftxc.C, eleTot sum is:42.000124, tauTot is:0.000000
 ---------------------------------------
  Cycle       Energy         DIIS Error
 ---------------------------------------
    1    -232.0887308948      5.17E-05
         cpu   1.62 wall   0.21
in dftxc.C, eleTot sum is:42.000139, tauTot is:0.000000
    2    -232.0887625349      1.32E-05
         cpu   1.48 wall   0.19
in dftxc.C, eleTot sum is:42.000139, tauTot is:0.000000
    3    -232.0887612352      2.86E-05
         cpu   1.47 wall   0.19
in dftxc.C, eleTot sum is:42.000139, tauTot is:0.000000
    4    -232.0887628632      2.95E-06
         cpu   1.44 wall   0.18
in dftxc.C, eleTot sum is:42.000139, tauTot is:0.000000
    5    -232.0887628782      8.12E-07
         cpu   1.55 wall   0.20
in dftxc.C, eleTot sum is:42.000139, tauTot is:0.000000
    6    -232.0887628794      8.39E-08 Convergence criterion met
 ---------------------------------------
 SCF time:  CPU 21.19 s  wall 2.76 s
 SCF   energy in the final basis set = -232.0887628794
 Total energy in the final basis set = -232.0887628794
 Analysis of SCF Wavefunction
 
 --------------------------------------------------------------
                    Orbital Energies (a.u.)
 --------------------------------------------------------------
 
 Alpha MOs
 -- Occupied --
 -9.919  -9.919  -9.919  -9.918  -9.918  -9.918  -0.773  -0.673
 -0.673  -0.540  -0.540  -0.464  -0.409  -0.392  -0.370  -0.370
 -0.320  -0.299  -0.299  -0.222  -0.221
 -- Virtual --
 -0.033  -0.033   0.040   0.082   0.083   0.109   0.116   0.116
  0.133   0.246   0.246   0.261   0.261   0.367   0.383   0.414
  0.435   0.466   0.466   0.469   0.469   0.490   0.490   0.491
  0.496   0.560   0.560   0.600   0.600   0.615   0.615   0.633
  0.666   0.750   0.776   0.815   0.838   0.838   0.866   0.947
  0.947   0.952   0.952   0.965   0.966   1.007   1.008   1.008
  1.154   1.229   1.229   1.397   1.410   1.410   1.448   1.463
  1.523   1.523   1.534   1.534   1.563   1.611   1.611   1.625
  1.625   1.669   1.717   1.717   1.758   1.768   1.768   1.777
  1.777   1.827   1.898   1.898   1.902   1.902   1.936   2.107
  2.168   2.273   2.335   2.335   2.335   2.335   2.531   2.531
  2.622   2.695   2.796   2.796   3.511
 --------------------------------------------------------------
 
          Ground-State Mulliken Net Atomic Charges

     Atom                 Charge (a.u.)
  ----------------------------------------
      1 C                     0.029130
      2 C                     0.028608
      3 C                     0.028863
      4 C                     0.028313
      5 C                     0.028874
      6 C                     0.028872
      7 H                    -0.028802
      8 H                    -0.028786
      9 H                    -0.028798
     10 H                    -0.028739
     11 H                    -0.028742
     12 H                    -0.028794
  ----------------------------------------
  Sum of atomic charges =    -0.000000

 -----------------------------------------------------------------
                    Cartesian Multipole Moments
 -----------------------------------------------------------------
    Charge (ESU x 10^10)
                -0.0000
    Dipole Moment (Debye)
         X      -0.0003      Y      -0.0004      Z      -0.0007
       Tot       0.0009
    Quadrupole Moments (Debye-Ang)
        XX     -31.9318     XY       0.0016     YY     -31.9372
        XZ      -0.0776     YZ      -0.1039     ZZ     -38.9249
    Octopole Moments (Debye-Ang^2)
       XXX      -0.4836    XXY      -0.1707    XYY      -0.1638
       YYY      -0.5020    XXZ       2.7042    XYZ      -0.0015
       YYZ       2.7060    XZZ      -0.1832    YZZ      -0.1866
       ZZZ       9.9060
    Hexadecapole Moments (Debye-Ang^3)
      XXXX    -279.2684   XXXY       0.0001   XXYY     -93.0914
      XYYY       0.0166   YYYY    -279.2004   XXXZ       1.0287
      XXYZ       0.4763   XYYZ       0.3459   YYYZ       1.4325
[...]
  H      8    1     -0.82497915     -2.35573701     -0.04093523
  H      9    1     -1.62573229      1.90375052     -0.09554740
  H     10    1     -2.45479333     -0.45704378     -0.05125227
  H     11    1      2.46511822      0.46631336     -0.11892886
  H     12    1      0.83416037      2.36652129     -0.12915339
[FREQ]
    401.57257248
    403.58454682
    604.55368193
    604.59753756
    676.08709483
    703.59796202
    843.10519421
    845.31555081
    959.80141072
    961.08835825
    989.88489505
    990.94834155
    995.39400164
   1034.41568925
   1037.20276821
   1151.19630835
   1168.25053603
   1169.75643256
   1332.51070735
   1347.82103105
   1469.45789484
   1472.26474987
   1600.25910380
   1600.88847027
   3109.38962671
   3118.28484384
   3122.31702574
   3135.51311770
   3140.12490885
   3149.26300496
[FR-COORD]
  C      2.62052351      0.50056925     -0.19643531
  C      0.88986772      2.51599603     -0.20761062
  C      1.73989010     -2.00494031     -0.14934322
  C     -0.87070635     -2.49581328     -0.11353794
  C     -1.72078858      2.02488926     -0.17177920
  C     -2.60107741     -0.48072274     -0.12474602
  H      3.08925667     -3.57938356     -0.14067471
  H     -1.55898465     -4.45169777     -0.07735637
  H     -3.07218878      3.59756709     -0.18055842
  H     -4.63888709     -0.86368757     -0.09685275
  H      4.65839830      0.88120454     -0.22474297
  H      1.57633464      4.47207711     -0.24406454
[FR-NORM-COORD]
vibration 1
     0.00248720      0.00336270      0.22774489
    -0.00061081     -0.00085520     -0.05493153
    -0.00188828     -0.00253986     -0.17318221
    -0.00061013     -0.00087022     -0.05494346
    -0.00188329     -0.00252915     -0.17308794
     0.00249436      0.00336053      0.22791399
    -0.00409646     -0.00556814     -0.38106323
    -0.00133414     -0.00185647     -0.12079702
    -0.00410811     -0.00559454     -0.38150700
     0.00545005      0.00785078      0.50456437
     0.00550885      0.00788396      0.50531603
    -0.00128992     -0.00186789     -0.12072340
vibration 2
    -0.00065883     -0.00100174     -0.06839294
     0.00253594      0.00343065      0.23279413
    -0.00184935     -0.00243187     -0.16381261
     0.00253552      0.00344177      0.23298482
    -0.00185342     -0.00243784     -0.16388019
    -0.00066623     -0.00100195     -0.06840631
    -0.00403907     -0.00545291     -0.36377161
     0.00536827      0.00778882      0.50814033
    -0.00400258     -0.00544132     -0.36330773
    -0.00161152     -0.00237468     -0.15272872
    -0.00162926     -0.00233613     -0.15257287
     0.00539460      0.00782789      0.50891776
vibration 3
     0.20314649     -0.09763321     -0.00087221
    -0.11818822     -0.34022159      0.00623255
     0.21854080     -0.04865119     -0.00173468
     0.11878016      0.34138226     -0.00626823
    -0.21842087      0.04811305      0.00174172
    -0.20397801      0.09717261      0.00091332
    -0.03222414     -0.26151562      0.00401057
     0.12123917      0.33818589     -0.00653069
     0.03146549      0.26069844     -0.00404981
    -0.14227816     -0.22576005      0.00334068
     0.14211033      0.22427297     -0.00337075
    -0.11888797     -0.33780972      0.00645161
vibration 4
    -0.29192275     -0.13440060      0.00510261
    -0.14599294      0.04942813      0.00103363
     0.14653435     -0.28800035      0.00293425
     0.14569471     -0.04959110     -0.00105633
    -0.14694541      0.28779323     -0.00297281
     0.29274450      0.13467095     -0.00517534
     0.28718894     -0.16520212     -0.00125781
    -0.20892576      0.07537976      0.00187143
    -0.28864334      0.16393614      0.00182959
     0.32591970     -0.05351161     -0.00210025
    -0.32541419      0.05572142      0.00260870
     0.20853573     -0.07513596     -0.00135618
vibration 5
    -0.00024939     -0.00047187     -0.03469752
    -0.00040289     -0.00059334     -0.03328732
    -0.00036552     -0.00051608     -0.03475729
    -0.00044270     -0.00058636     -0.03303983
    -0.00035125     -0.00056664     -0.03481664
    -0.00034061     -0.00049201     -0.03436365
     0.00454445      0.00605683      0.40836811
     0.00383195      0.00630725      0.40472826
     0.00448771      0.00599866      0.40839006
     0.00435177      0.00679792      0.40490777
     0.00456591      0.00683227      0.40697444
     0.00384588      0.00642194      0.40706964
vibration 6
    -0.00202503     -0.00295903     -0.20400264
     0.00227879      0.00301070      0.20582370
     0.00229211      0.00305056      0.20484387
    -0.00227638     -0.00301218     -0.20581657
    -0.00229227     -0.00304614     -0.20483547
     0.00202322      0.00295748      0.20406538
     0.00380389      0.00510169      0.35337071
    -0.00362926     -0.00521425     -0.34659847
    -0.00379519     -0.00511087     -0.35372137
     0.00364397      0.00553230      0.35836228
    -0.00368039     -0.00555549     -0.35912034
     0.00365174      0.00523011      0.34677519
vibration 7
     0.00052053      0.00082583      0.05867895
    -0.00040330     -0.00068336     -0.02489615
     0.00078301      0.00148671      0.08307380
     0.00039935      0.00067303      0.02440840
    -0.00078608     -0.00148146     -0.08327569
    -0.00050695     -0.00082174     -0.05808760
    -0.00635093     -0.00797896     -0.55675559
    -0.00139452     -0.00226949     -0.16261289
     0.00632542      0.00803017      0.55775691
     0.00424504      0.00651206      0.38836652
    -0.00434716     -0.00660109     -0.39027289
     0.00144409      0.00231914      0.16468825
vibration 8
     0.00103617      0.00100580      0.06340336
     0.00091518      0.00135719      0.08065777
     0.00010382     -0.00036127     -0.02102270
    -0.00090560     -0.00135015     -0.08039389
    -0.00011506      0.00034662      0.02031053
    -0.00103261     -0.00099926     -0.06345671
     0.00174856      0.00186158      0.13341615
     0.00512226      0.00849762      0.54557050
    -0.00169539     -0.00181009     -0.12948962
     0.00410179      0.00698725      0.41817851
    -0.00417480     -0.00695723     -0.41660906
    -0.00512503     -0.00856634     -0.54509354
vibration 9
    -0.00101480     -0.00111347     -0.09318390
    -0.00021484     -0.00019766      0.00390257
     0.00132908      0.00105694      0.08970407
    -0.00023740     -0.00022358      0.00317605
     0.00129822      0.00105596      0.08887889
    -0.00102885     -0.00111826     -0.09299743
    -0.00462720     -0.00717761     -0.48315505
    -0.00121925     -0.00027299     -0.01611788
    -0.00454919     -0.00710263     -0.47763843
     0.00495124      0.01063120      0.50147574
     0.00509419      0.01070321      0.50250371
    -0.00121435     -0.00035073     -0.02087955
vibration 10
     0.00099484      0.00085773      0.04973872
    -0.00138324     -0.00171821     -0.10524276
     0.00055342      0.00080349      0.05445867
    -0.00136525     -0.00170480     -0.10449137
     0.00056654      0.00083471      0.05589631
     0.00098188      0.00084177      0.04863527
    -0.00334277     -0.00448302     -0.29409485
     0.00367374      0.00947779      0.56692498
    -0.00341666     -0.00461942     -0.30366910
    -0.00231856     -0.00442255     -0.26083201
    -0.00245444     -0.00457997     -0.26799717
     0.00371282      0.00964288      0.57163648
vibration 11
     0.27405327      0.05038443     -0.00376460
    -0.10019196     -0.28607834      0.00555258
    -0.19940837      0.23079941     -0.00151142
    -0.09118523     -0.25870694      0.00535542
    -0.18255662      0.20886167     -0.00096714
     0.30024513      0.05604610     -0.00447896
    -0.20036234      0.22541772      0.00100926
    -0.09339967     -0.25133334      0.00092326
    -0.18349697      0.19992152     -0.00160583
     0.29783790      0.05027299     -0.00208783
     0.26937832      0.04211146     -0.00414987
    -0.10134272     -0.28194447      0.00369772
vibration 12
     0.28099631      0.05333702     -0.00355653
     0.08619263      0.24432816     -0.00532250
     0.17174594     -0.19688815      0.00118896
    -0.09538244     -0.27388686      0.00591301
    -0.18662204      0.21867465     -0.00136640
    -0.25867557     -0.04743940      0.00325628
     0.19783241     -0.21039552     -0.00051564
    -0.09965000     -0.30079799      0.00094124
    -0.19640165      0.24556797      0.00004014
    -0.28715470     -0.04135143      0.00485584
     0.30674650      0.06051658     -0.00576494
     0.09940676      0.26878056     -0.00089988
vibration 13
    -0.00022318     -0.00068152     -0.05745181
     0.00082872      0.00096109      0.05818473
     0.00058163      0.00099145      0.05813224
    -0.00095319     -0.00133114     -0.05986485
    -0.00081490     -0.00070072     -0.05800438
     0.00057116      0.00076257      0.05899548
    -0.00434644     -0.00568836     -0.40184336
     0.00294087      0.00633177      0.41259748
     0.00412076      0.00601687      0.40111781
    -0.00430425     -0.00750486     -0.40674250
     0.00462603      0.00741774      0.39815997
    -0.00292062     -0.00659368     -0.40318726
vibration 14
    -0.04576328      0.07021520     -0.00010567
    -0.05650652     -0.10181599      0.00219275
     0.09497768     -0.02177905     -0.00108674
    -0.05572848     -0.09895607      0.00214595
     0.09666827     -0.02362517     -0.00108274
    -0.04329736      0.07051766     -0.00013968
     0.34871766      0.18695646     -0.00469590
    -0.16272459     -0.07078568      0.00244416
     0.35171348      0.18628593     -0.00473555
    -0.12840794      0.51214736     -0.00919626
    -0.13146379      0.51521220     -0.00922835
    -0.16293817     -0.07432565      0.00250484
vibration 15
    -0.10693721     -0.04249167      0.00170802
     0.06516301     -0.05463350     -0.00022668
    -0.01278476      0.10156441     -0.00108599
     0.06563743     -0.05276808     -0.00024991
    -0.01164544      0.10012560     -0.00105070
    -0.10459346     -0.04227199      0.00166824
     0.23268323      0.32022088     -0.00871900
     0.48263853     -0.20173638      0.00003206
     0.23225374      0.31765040     -0.00881444
    -0.08910165     -0.17275346      0.00417615
    -0.09207186     -0.17196525      0.00413002
     0.48571909     -0.20482527      0.00011058
vibration 16
    -0.00528727      0.02517306     -0.00013598
     0.02655805     -0.00864431     -0.00036174
    -0.02030424     -0.01538144      0.00046948
     0.02389449     -0.00784779     -0.00032970
    -0.02007147     -0.01569123      0.00047410
    -0.00489939      0.02251727     -0.00010935
    -0.31082101     -0.26317516      0.00721196
     0.37473324     -0.13122131     -0.00099979
    -0.31047636     -0.26404577      0.00718477
    -0.07300870      0.38580328     -0.00601763
    -0.07722172      0.41025351     -0.00640931
     0.39810223     -0.13910959     -0.00105101
vibration 17
     0.01093514     -0.05705742      0.00053968
    -0.02153769      0.00318415      0.00025432
     0.03085163      0.02276797     -0.00063557
     0.02258866     -0.00361536     -0.00026004
    -0.03120499     -0.02367615      0.00065383
    -0.01172558      0.05823290     -0.00053902
     0.26971732      0.22712399     -0.00675631
     0.19617839     -0.06498061     -0.00063310
    -0.28038770     -0.23741168      0.00695819
    -0.10747702      0.56962531     -0.00877338
     0.10315104     -0.55157372      0.00847967
    -0.18007664      0.05916842      0.00056777
vibration 18
    -0.00186277     -0.00939647      0.00009616
    -0.05327394      0.01976821      0.00047044
    -0.03411744     -0.03187426      0.00089891
     0.05431886     -0.02060597     -0.00047632
     0.03315796      0.03197301     -0.00089426
     0.00161036      0.01012430     -0.00010496
    -0.34421910     -0.29646831      0.00768873
     0.50983302     -0.18072601     -0.00145194
     0.33398760      0.28933356     -0.00744701
    -0.01600476      0.10277547     -0.00186653
     0.01335074     -0.08953355      0.00175032
    -0.49495942      0.17475204      0.00144586
vibration 19
     0.01186016     -0.06083920      0.00086746
     0.05572723     -0.01912410     -0.00021407
    -0.04655158     -0.03895699      0.00110340
    -0.05516136      0.01904614      0.00020979
     0.04613460      0.03922030     -0.00109816
    -0.01192266      0.06054246     -0.00085971
     0.30586698      0.26226284     -0.00726619
     0.38718524     -0.13667326     -0.00156635
    -0.30594764     -0.26223375      0.00721829
     0.07237221     -0.38981642      0.00572662
    -0.07236153      0.39093217     -0.00576445
    -0.38814387      0.13685470      0.00154827
vibration 20
    -0.06017187      0.32503258     -0.00420224
     0.30691948     -0.10858225     -0.00173119
    -0.24649279     -0.21547182      0.00590215
     0.30606449     -0.10825536     -0.00171698
    -0.24701179     -0.21526626      0.00589602
    -0.05988796      0.32397108     -0.00418415
     0.18614611      0.15309143     -0.00434704
    -0.22886159      0.08016799      0.00085645
     0.18637188      0.15490947     -0.00433518
     0.04624149     -0.24163179      0.00364463
     0.04583638     -0.24317894      0.00369525
    -0.22882305      0.07963916      0.00091917
vibration 21
     0.06008946     -0.13139233      0.00138237
     0.05345576      0.08211236     -0.00182836
    -0.12914556     -0.03135460      0.00187268
     0.05375720      0.08191194     -0.00182309
    -0.12919493     -0.03223584      0.00188217
     0.06029622     -0.13094947      0.00137477
     0.27102500      0.32881782     -0.00771485
    -0.04064097      0.13859170     -0.00166432
     0.27245792      0.32979957     -0.00774271
    -0.04890207      0.49647008     -0.00762980
    -0.04872258      0.49624941     -0.00763678
    -0.03918113      0.13787201     -0.00167122
vibration 22
     0.07705530      0.06917143     -0.00185946
    -0.13597823      0.06269158      0.00044817
    -0.02256990     -0.11680546      0.00201359
    -0.13554431      0.06276728      0.00044149
    -0.02169900     -0.11673194      0.00200410
     0.07683207      0.06950247     -0.00185634
     0.31319840      0.14723266     -0.00578724
     0.50951098     -0.16070932     -0.00246177
     0.31195358      0.14602575     -0.00573648
     0.14241595     -0.16914490      0.00114666
     0.14186115     -0.16742578      0.00111913
     0.50881438     -0.16027044     -0.00246777
vibration 23
     0.14821721     -0.21410141      0.00159638
    -0.29356985      0.14482542      0.00100783
    -0.15961650      0.05546960      0.00091038
     0.29466004     -0.14570330     -0.00100347
     0.15954925     -0.05527485     -0.00090367
    -0.14888788      0.21491546     -0.00160903
    -0.02953891      0.18780753     -0.00210802
    -0.39519982      0.09265310      0.00236894
     0.02770834     -0.18934636      0.00213196
    -0.06403171     -0.30288163      0.00565856
     0.06401124      0.30204255     -0.00565988
     0.39285645     -0.09183413     -0.00237271
vibration 24
    -0.06199203     -0.25348658      0.00446766
     0.13187430      0.10890848     -0.00309071
     0.22274324      0.24242489     -0.00602137
    -0.13221382     -0.10889759      0.00308271
    -0.22214768     -0.24282359      0.00601622
     0.06158250      0.25423246     -0.00446380
    -0.33104395     -0.22414588      0.00707855
     0.05018810     -0.19072160      0.00183015
     0.33043689      0.22365860     -0.00703606
     0.17014801     -0.26024966      0.00236030
    -0.16930121      0.25754231     -0.00230445
    -0.04860023      0.18965286     -0.00181792
vibration 25
     0.02609795      0.00495288     -0.00036921
    -0.01124601     -0.03269116      0.00062759
    -0.02150565      0.02604992     -0.00014540
    -0.01369340     -0.03933327      0.00075338
    -0.02111321      0.02510921     -0.00013811
     0.03004066      0.00590733     -0.00042087
     0.26532199     -0.31158617      0.00174977
     0.16506826      0.46974998     -0.00907551
     0.25811365     -0.30197303      0.00170903
    -0.36856895     -0.06917345      0.00509467
    -0.32123119     -0.05977887      0.00450091
     0.13726756      0.39188981     -0.00763874
vibration 26
     0.01037381      0.00370528     -0.00017015
    -0.01583371     -0.04687236      0.00091089
     0.01829343     -0.02360980      0.00013905
     0.01561991      0.04578409     -0.00088585
    -0.02294986      0.02880867     -0.00016705
    -0.00633595     -0.00320833      0.00011591
    -0.22804558      0.26922385     -0.00145315
    -0.18697734     -0.53267328      0.01016197
     0.28159239     -0.33081896      0.00181460
     0.07944190      0.01712187     -0.00113768
    -0.12786594     -0.02567052      0.00182781
     0.19176537      0.54795602     -0.01053255
vibration 27
     0.04279341      0.00742034     -0.00058553
    -0.00772128     -0.01682334      0.00034619
    -0.02687138      0.02947498     -0.00013572
     0.00721635      0.01463637     -0.00030473
     0.02351693     -0.02531416      0.00011381
    -0.04317531     -0.00766956      0.00058490
     0.30292988     -0.35242901      0.00184524
    -0.06399702     -0.17541823      0.00336541
    -0.26325682      0.30500709     -0.00160649
     0.50907865      0.09486398     -0.00698809
    -0.50677124     -0.09373098      0.00704936
     0.07251657      0.20117236     -0.00389072
vibration 28
    -0.00808578      0.00219468      0.00005498
    -0.01663292     -0.04340579      0.00085409
     0.03037508     -0.03215430      0.00014198
    -0.01613975     -0.04196976      0.00082103
     0.02778946     -0.02885123      0.00012442
    -0.01338386      0.00106375      0.00012905
    -0.32400150      0.37479989     -0.00198139
     0.16690015      0.46930513     -0.00903576
    -0.29387066      0.33848909     -0.00180911
     0.14570085      0.02249849     -0.00192192
     0.08533460      0.01099594     -0.00110586
     0.17323538      0.48803999     -0.00945435
vibration 29
    -0.04996401     -0.00988825      0.00070403
    -0.00074196     -0.01236063      0.00019838
    -0.01461229      0.02139568     -0.00015509
    -0.00294084     -0.01834271      0.00031510
    -0.01978495      0.02737782     -0.00018911
    -0.05449118     -0.01082291      0.00075904
     0.18248378     -0.21934131      0.00123394
     0.06234226      0.19053595     -0.00361501
     0.23964798     -0.28555885      0.00161362
     0.61085049      0.11512981     -0.00842450
     0.56262973      0.10564315     -0.00787018
     0.03917988      0.12503703     -0.00237398
vibration 30
    -0.04645928     -0.00862279      0.00065226
    -0.01161863     -0.03417693      0.00066447
    -0.02341772      0.02825501     -0.00016323
     0.00994407      0.02798564     -0.00054675
     0.02284400     -0.02656513      0.00014724
     0.03702040      0.00709170     -0.00051730
     0.25727461     -0.30211723      0.00163198
    -0.10540582     -0.29950992      0.00575341
    -0.24640785      0.28761335     -0.00156792
    -0.40469732     -0.07592714      0.00555206
     0.51011798      0.09512490     -0.00710037
     0.12827474      0.36664358     -0.00708744
[INT]
    0.000124
    0.001381
    0.000007
    0.000049
   71.822614
    0.000002
    0.000009
    0.000348
    0.000256
    0.000863
    0.000497
    0.000559
    0.000001
    4.331533
    4.252211
    0.001330
    0.000050
    0.000087
    0.000059
    0.000069
    5.291199
    5.174118
    0.000012
    0.000036
    0.573602
    0.060956
    0.059106
   53.298287
   53.174281
    0.445931

======= END OF MOLDEN-FORMATTED INPUT FILE =======


        *************************************************************
        *                                                           *
        *  Thank you very much for using Q-Chem.  Have a nice day.  *
        *                                                           *
        *************************************************************


