                  Welcome to Q-Chem
     A Quantum Leap Into The Future Of Chemistry


 Q-Chem 4.2, Q-Chem, Inc., Pleasanton, CA (2014).

 Y. Shao,  Z. Gan,  E. Epifanovsky,  A. T. B. Gilbert,  M. Wormit,  
 J. Kussmann,  A. W. Lange,  A. Behn,  J. Deng,  X. Feng,  D. Ghosh,  
 M. Goldey,  P. R. Horn,  L. D. Jacobson,  I. Kaliman,  R. Z. Khaliullin,  
 T. Kus,  A. Landau,  J. Liu,  E. I. Proynov,  Y. M. Rhee,  R. M. Richard,  
 M. A. Rohrdanz,  R. P. Steele,  E. J. Sundstrom,  H. L. Woodcock III,  
 P. M. Zimmerman,  D. Zuev,  B. Albrecht,  E. Alguire,  B. Austin,  
 G. J. O. Beran,  Y. A. Bernard,  E. Berquist,  K. Brandhorst,  
 K. B. Bravaya,  S. T. Brown,  D. Casanova,  C.-M. Chang,  Y. Chen,  
 S. H. Chien,  K. D. Closser,  D. L. Crittenden,  M. Diedenhofen,  
 R. A. DiStasio Jr.,  H. Do,  A. D. Dutoi,  R. G. Edgar,  S. Fatehi,  
 L. Fusti-Molnar,  A. Ghysels,  A. Golubeva-Zadorozhnaya,  J. Gomes,  
 M. W. D. Hanson-Heine,  P. H. P. Harbach,  A. W. Hauser,  E. G. Hohenstein,  
 Z. C. Holden,  T.-C. Jagau,  H. Ji,  B. Kaduk,  K. Khistyaev,  Jaehoon Kim,  
 Jihan Kim,  R. A. King,  P. Klunzinger,  D. Kosenkov,  T. Kowalczyk,  
 C. M. Krauter,  K. U. Lao,  A. Laurent,  K. V. Lawler,  S. V. Levchenko,  
 C. Y. Lin,  F. Liu,  E. Livshits,  R. C. Lochan,  A. Luenser,  P. Manohar,  
 S. F. Manzer,  S.-P. Mao,  N. Mardirossian,  A. V. Marenich,  S. A. Maurer,  
 N. J. Mayhall,  C. M. Oana,  R. Olivares-Amaya,  D. P. O'Neill,  
 J. A. Parkhill,  T. M. Perrine,  R. Peverati,  P. A. Pieniazek,  A. Prociuk,  
 D. R. Rehn,  E. Rosta,  N. J. Russ,  N. Sergueev,  S. M. Sharada,  
 S. Sharma,  D. W. Small,  A. Sodt,  T. Stein,  D. Stuck,  Y.-C. Su,  
 A. J. W. Thom,  T. Tsuchimochi,  L. Vogt,  O. Vydrov,  T. Wang,  
 M. A. Watson,  J. Wenzel,  A. White,  C. F. Williams,  V. Vanovschi,  
 S. Yeganeh,  S. R. Yost,  Z.-Q. You,  I. Y. Zhang,  X. Zhang,  Y. Zhao,  
 B. R. Brooks,  G. K. L. Chan,  D. M. Chipman,  C. J. Cramer,  
 W. A. Goddard III,  M. S. Gordon,  W. J. Hehre,  A. Klamt,  
 H. F. Schaefer III,  M. W. Schmidt,  C. D. Sherrill,  D. G. Truhlar,  
 A. Warshel,  X. Xu,  A. Aspuru-Guzik,  R. Baer,  A. T. Bell,  N. A. Besley,  
 J.-D. Chai,  A. Dreuw,  B. D. Dunietz,  T. R. Furlani,  S. R. Gwaltney,  
 C.-P. Hsu,  Y. Jung,  J. Kong,  D. S. Lambrecht,  W. Liang,  C. Ochsenfeld,  
 V. A. Rassolov,  L. V. Slipchenko,  J. E. Subotnik,  T. Van Voorhis,  
 J. M. Herbert,  A. I. Krylov,  P. M. W. Gill,  M. Head-Gordon

 Contributors to earlier versions of Q-Chem not listed above: 
 R. D. Adamson,  J. Baker,  E. F. C. Byrd,  A. K. Chakraborty,  C.-L. Cheng,  
 H. Dachsel,  R. J. Doerksen,  G. Hawkins,  A. Heyden,  S. Hirata,  
 G. Kedziora,  F. J. Keil,  C. Kelley,  P. P. Korambath,  W. Kurlancheek,  
 A. M. Lee,  M. S. Lee,  D. Liotard,  I. Lotan,  P. E. Maslen,  N. Nair,  
 D. Neuhauser,  R. Olson,  B. Peters,  J. Ritchie,  N. E. Schultz,  
 N. Shenvi,  A. C. Simmonett,  K. S. Thanthiriwatte,  Q. Wu,  W. Zhang

 Q-Chem 4.2.0 for Intel X86 EM64T Linux

 Parts of Q-Chem use Armadillo 4.100.2 (Dirt Cruiser).
 http://arma.sourceforge.net/

 Q-Chem begins on Sat Jul 19 22:21:43 2014  

Host: compute-0-7.local
0

     Scratch files written to /scratch/tsivion/cat-mg-3Me-opt-freq.in20140719222137//
 Jun314 |home|tsivion|software|qchem411|libmdc|qstr_info.C -1
Finally everything over in PARseQInput

--------------------------------------------------------------
User input:
--------------------------------------------------------------
$comment
$end

$molecule
0 1
  C      0.97127315     -0.65191417      0.79631230
  C      1.42362261      0.39967448      1.60275469
  C      0.51763689      1.47884481      1.91165164
  C     -0.78390405      1.43925180      1.39704999
  C     -1.21279816      0.37564324      0.59363016
  C     -0.33559175     -0.66860442      0.29294688
  O      2.69605124      0.41982235      2.09507181
  O      0.93827649      2.51656152      2.69157514
 Mg      2.75460035      2.10510374      2.92363352
  H      1.66740736     -1.45995597      0.57641748
  H     -1.45402040      2.26162388      1.64333491
  H     -2.23071997      0.36712331      0.20690701
  H     -0.66281212     -1.49897748     -0.33093122
  C      5.20437420      1.41967136      3.93940103
  H      5.35714745      2.36526713      3.39947981
  H      6.18155135      1.11480752      4.32384299
  H      4.54885330      1.55972840      4.81034077
  H      4.82635467      0.62980518      3.27904111
  C      3.58144104      3.37364073      0.55207827
  H      3.58955731      2.28932648      0.39324390
  H      2.56545286      3.70823806      0.79346483
  H      4.29314827      3.66166573      1.34196574
  H      3.90945152      3.87165454     -0.36489696
  C      2.91876027      4.42135145      4.43676765
  H      2.97626055      5.35420012      5.00438150
  H      3.73562667      4.44804474      3.70152566
  H      3.05300249      3.59864730      5.15225318
  H      1.93832640      4.36322419      3.95033621
$end


$rem
	jobtype 				opt
	exchange 				b97-d
	dft_d					empirical_grimme3
	basis 					gen ! def2-tzvp
	max_scf_cycles 			200
	symmetry 				false
	sym_ignore 				true
	molden_format			true
	nbo						false
	scf_convergence 		7
	thresh					13
	geom_opt2 				false
	geom_opt_tol_gradient 	50
	geom_opt_tol_energy     10
	GEOM_OPT_MAX_CYCLES		500
	thresh					13
	mem_static				3000
	mem_total				8000
	DFT_D3_RS6 				892
	DFT_D3_S8  				909
$end

$basis ! def2-tzvp
****
H     0 
S   3   1.00
     34.0613410              0.60251978E-02   
      5.1235746              0.45021094E-01   
      1.1646626              0.20189726       
S   1   1.00
      0.32723041             1.0000000        
S   1   1.00
      0.10307241             1.0000000        
P   1   1.00
      0.8000000              1.0000000        
****
C     0 
S   6   1.00
  13575.3496820              0.22245814352E-03      
   2035.2333680              0.17232738252E-02      
    463.22562359             0.89255715314E-02      
    131.20019598             0.35727984502E-01      
     42.853015891            0.11076259931    
     15.584185766            0.24295627626    
S   2   1.00
      6.2067138508           0.41440263448    
      2.5764896527           0.23744968655    
S   1   1.00
      0.57696339419          1.0000000        
S   1   1.00
      0.22972831358          1.0000000        
S   1   1.00
      0.95164440028E-01            1.0000000        
P   4   1.00
     34.697232244            0.53333657805E-02      
      7.9582622826           0.35864109092E-01      
      2.3780826883           0.14215873329    
      0.81433208183          0.34270471845    
P   1   1.00
      0.28887547253          1.0000000        
P   1   1.00
      0.10056823671          1.0000000        
D   1   1.00
      1.09700000             1.0000000        
D   1   1.00
      0.31800000             1.0000000        
F   1   1.00
      0.76100000             1.0000000        
****
N     0 
S   6   1.00
  19730.8006470              0.21887984991E-03      
   2957.8958745              0.16960708803E-02      
    673.22133595             0.87954603538E-02      
    190.68249494             0.35359382605E-01      
     62.295441898            0.11095789217    
     22.654161182            0.24982972552    
S   2   1.00
      8.9791477428           0.40623896148    
      3.6863002370           0.24338217176    
S   1   1.00
      0.84660076805          1.0000000        
S   1   1.00
      0.33647133771          1.0000000        
S   1   1.00
      0.13647653675          1.0000000        
P   4   1.00
     49.200380510            0.55552416751E-02      
     11.346790537            0.38052379723E-01      
      3.4273972411           0.14953671029    
      1.1785525134           0.34949305230    
P   1   1.00
      0.41642204972          1.0000000        
P   1   1.00
      0.14260826011          1.0000000        
D   1   1.00
      1.65400000             1.0000000        
D   1   1.00
      0.46900000             1.0000000        
F   1   1.00
      1.09300000             1.0000000        
****
O     0 
S   6   1.00
  27032.3826310              0.21726302465E-03      
   4052.3871392              0.16838662199E-02      
    922.32722710             0.87395616265E-02      
    261.24070989             0.35239968808E-01      
     85.354641351            0.11153519115    
     31.035035245            0.25588953961    
S   2   1.00
     12.260860728            0.39768730901    
      4.9987076005           0.24627849430    
S   1   1.00
      1.1703108158           1.0000000        
S   1   1.00
      0.46474740994          1.0000000        
S   1   1.00
      0.18504536357          1.0000000        
P   4   1.00
     63.274954801            0.60685103418E-02      
     14.627049379            0.41912575824E-01      
      4.4501223456           0.16153841088    
      1.5275799647           0.35706951311    
P   1   1.00
      0.52935117943          1.0000000        
P   1   1.00
      0.17478421270          1.0000000        
D   1   1.00
      2.31400000             1.0000000        
D   1   1.00
      0.64500000             1.0000000        
F   1   1.00
      1.42800000             1.0000000        
****
Mg     0 
S   7   1.00
  31438.3495550              0.60912311326E-03      
   4715.5153354              0.47066196465E-02      
   1073.1629247              0.24135820657E-01      
    303.57238768             0.93628959834E-01      
     98.626251042            0.26646742093    
     34.943808417            0.47890929917    
     12.859785199            0.33698490286    
S   3   1.00
     64.876913004            0.19180889307E-01      
     19.725520777            0.90913704392E-01      
      2.8951804339          -0.39563756125    
S   2   1.00
      1.1960454710           1.6827603373     
      0.54329451156          0.52141091954    
S   1   1.00
      0.10099104092          1.0000000        
S   1   1.00
      0.36865728085E-01            1.0000000        
P   5   1.00
    179.87189612             0.53799549018E-02      
     42.120069376            0.39318014098E-01      
     13.120503032            0.15740129476    
      4.6257503609           0.35919094128    
      1.6695211016           0.45533379310    
P   1   1.00
      0.58551012105          1.0000000        
P   1   1.00
      0.18914796195          1.0000000        
P   1   1.00
      0.53768755187E-01            1.0000000        
D   1   1.00
      3.4440000              1.0000000        
D   1   1.00
      0.2900000              1.0000000        
D   1   1.00
      0.0700000              1.0000000        
****
Ca     0 
S   8   1.00
 172517.3268500              0.23317502546E-03      
  25861.5192750              0.18076521980E-02      
   5885.6618668              0.93943844255E-02      
   1665.9730031              0.38108409009E-01      
    542.36718148             0.12331203853    
    194.57803492             0.29004470954    
     75.303597636            0.40587151157    
     29.574062589            0.20398410743    
S   4   1.00
    191.20074660            -0.24419759759E-01      
     58.840299883           -0.11547027448    
      8.9642540845           0.56356636717    
      3.6856960541           0.56709682704    
S   2   1.00
      5.2464289726          -0.22825334325    
      0.84862621528          0.72625219172    
S   1   1.00
      0.36743300538          1.0000000        
S   1   1.00
      0.66821582613E-01            1.0000000        
S   1   1.00
      0.26759730445E-01            1.0000000        
P   6   1.00
    836.97262058             0.25258346092E-02      
    197.93040142             0.20076506686E-01      
     63.135558054            0.91302987366E-01      
     23.282687170            0.25247029915    
      9.1176444932           0.39426326344    
      3.6336120139           0.23011559492    
P   3   1.00
     13.494163120           -0.26495021951E-01      
      1.8139259790           0.55088108210    
      0.71981826006          1.0280616620     
P   1   1.00
      0.27629576992          1.0000000        
P   1   1.00
      0.0749790              1.0000000        
P   1   1.00
      0.0269270              1.0000000        
D   2   1.00
      5.4979093879           0.73770011433E-01      
      1.3177128032           0.26052853169    
D   1   1.00
      0.32188682649          1.0000000        
D   1   1.00
      0.70528614919E-01            1.0000000        
****
$end


--------------------------------------------------------------
 ----------------------------------------------------------------
             Standard Nuclear Orientation (Angstroms)
    I     Atom           X                Y                Z
 ----------------------------------------------------------------
    1      C       0.9712731500    -0.6519141700     0.7963123000
    2      C       1.4236226100     0.3996744800     1.6027546900
    3      C       0.5176368900     1.4788448100     1.9116516400
    4      C      -0.7839040500     1.4392518000     1.3970499900
    5      C      -1.2127981600     0.3756432400     0.5936301600
    6      C      -0.3355917500    -0.6686044200     0.2929468800
    7      O       2.6960512400     0.4198223500     2.0950718100
    8      O       0.9382764900     2.5165615200     2.6915751400
    9      Mg      2.7546003500     2.1051037400     2.9236335200
   10      H       1.6674073600    -1.4599559700     0.5764174800
   11      H      -1.4540204000     2.2616238800     1.6433349100
   12      H      -2.2307199700     0.3671233100     0.2069070100
   13      H      -0.6628121200    -1.4989774800    -0.3309312200
   14      C       5.2043742000     1.4196713600     3.9394010300
   15      H       5.3571474500     2.3652671300     3.3994798100
   16      H       6.1815513500     1.1148075200     4.3238429900
   17      H       4.5488533000     1.5597284000     4.8103407700
   18      H       4.8263546700     0.6298051800     3.2790411100
   19      C       3.5814410400     3.3736407300     0.5520782700
   20      H       3.5895573100     2.2893264800     0.3932439000
   21      H       2.5654528600     3.7082380600     0.7934648300
   22      H       4.2931482700     3.6616657300     1.3419657400
   23      H       3.9094515200     3.8716545400    -0.3648969600
   24      C       2.9187602700     4.4213514500     4.4367676500
   25      H       2.9762605500     5.3542001200     5.0043815000
   26      H       3.7356266700     4.4480447400     3.7015256600
   27      H       3.0530024900     3.5986473000     5.1522531800
   28      H       1.9383264000     4.3632241900     3.9503362100
 ----------------------------------------------------------------
 Nuclear Repulsion Energy =   778.0697875661 hartrees
 There are       49 alpha and       49 beta electrons

 Q-Chem warning in module /home/tsivion/software/qchem411/forms1/BasisType.C, line 1209:

 Setting pure/cartesian flag to 2111 for general basis


 Requested basis set is non-standard
 There are 197 shells and 469 basis functions

Total QAlloc Memory Limit   8000 MB
Mega-Array Size      2933 MB
MEM_STATIC part      3000 MB
 A cutoff of  1.0D-13 yielded  15583 shell pairs
 There are     88485 function pairs (    111378 Cartesian)
 Smallest overlap matrix eigenvalue = 8.75E-06

  Scale SEOQF with 1.000000e-02/1.000000e-02/1.000000e-01

 Standard Electronic Orientation quadrupole field applied
 Nucleus-field energy     =    -0.0000000600 hartrees
 Guess MOs from core Hamiltonian diagonalization
 A restricted Kohn-Sham SCF calculation will be
 performed using Pulay DIIS extrapolation
 Exchange:  B97D      Correlation:  B97-D
 Using SG-1 standard quadrature grid
 SCF converges when DIIS error is below 1.0E-07
 using 10 threads for integral computing 
 
 -------------------------------------------------------
 OpenMP Integral Computing Module                       
 Release: version 1.0, May 2013, Q-Chem Inc. Pittsburgh 
 -------------------------------------------------------
 Integral Job Info:
 Integral job number is                      20
 Integral operator is                         1
 short-range coefficients               -999999
 long-range coefficients                -999999
 Omega coefficients                           0
 if combine SR and LR in K              -999999
 Integral screening is                        1
 Integral computing path is                   2
 max size of driver memory is            800000
 size of driver memory is                776850
 size of scratch memory is              2620350
 max col of scratch BK array              10000
 max len of scratch array in speh3          662
 max len of scratch index in speh4           32
 max int batch size is                       50
 min int batch size is                       15
 fixed nKL is                                15
 max L of basis functions is                  3
 order of int derivative is                   0
 number of shells is                        197
 number of basis is                         527
 number of cartesian basis is               527
 number of contracted shell pairs         15583
 number of primitive shell pairs          32994
 maxK2 (contraction) of shell pair           49
 max number of K2 of shell pair               1
 max number of CS2 of shell pair           2678
 max number of PS2 of shell pair           3786
 mem total for path MDJ                  241360
 -------------------------------------------------------
         cpu  69.86 wall   6.99
 -------------------------------------------------------
 OpenMP BLAS3 based DFT computing Module                
 Release: version 1.0, May 2013, Q-Chem Inc. Pittsburgh 
 -------------------------------------------------------
in dftxc.C, eleTot sum is:97.997440, tauTot is:0.000000
 ---------------------------------------
  Cycle       Energy         DIIS Error
 ---------------------------------------
    1    -269.0917442691      1.08E-01
         cpu  71.17 wall   7.12
in dftxc.C, eleTot sum is:98.000429, tauTot is:0.000000
    2    -323.6857798031      6.91E-02
         cpu  79.98 wall   8.00
in dftxc.C, eleTot sum is:97.999632, tauTot is:0.000000
    3    -502.3785811421      7.12E-02
         cpu  72.15 wall   7.22
in dftxc.C, eleTot sum is:98.001819, tauTot is:0.000000
    4    -621.9958449320      3.55E-02
         cpu  87.99 wall   8.81
in dftxc.C, eleTot sum is:97.995609, tauTot is:0.000000
    5    -523.7994444597      6.17E-02
         cpu  71.95 wall   7.20
in dftxc.C, eleTot sum is:97.985448, tauTot is:0.000000
    6    -619.6055545862      3.59E-02
         cpu  74.28 wall   7.43
in dftxc.C, eleTot sum is:97.999681, tauTot is:0.000000
    7    -696.5718096726      1.47E-02
         cpu  75.34 wall   7.54
in dftxc.C, eleTot sum is:97.987840, tauTot is:0.000000
    8    -576.1249722411      4.88E-02
         cpu  76.90 wall   7.69
in dftxc.C, eleTot sum is:97.999773, tauTot is:0.000000
    9    -696.4298842250      1.39E-02
         cpu  79.99 wall   8.01
in dftxc.C, eleTot sum is:97.999933, tauTot is:0.000000
   10    -702.3908293290      4.83E-03
         cpu  73.25 wall   7.33
in dftxc.C, eleTot sum is:98.000034, tauTot is:0.000000
   11    -702.2911332485      5.32E-03
         cpu  68.66 wall   6.87
in dftxc.C, eleTot sum is:98.000033, tauTot is:0.000000
   12    -702.9585558799      1.52E-03
         cpu  67.57 wall   6.76
in dftxc.C, eleTot sum is:97.999968, tauTot is:0.000000
   13    -702.9812772628      1.26E-03
         cpu  67.06 wall   6.72
in dftxc.C, eleTot sum is:98.000005, tauTot is:0.000000
   14    -703.0178838051      6.13E-04
         cpu  72.28 wall   7.23
in dftxc.C, eleTot sum is:98.000019, tauTot is:0.000000
   15    -703.0277597667      1.27E-04
         cpu  74.16 wall   7.42
in dftxc.C, eleTot sum is:98.000014, tauTot is:0.000000
   16    -703.0281999280      3.42E-05
         cpu  59.43 wall   5.95
in dftxc.C, eleTot sum is:98.000015, tauTot is:0.000000
   17    -703.0282243047      1.66E-05
         cpu  61.70 wall   6.17
in dftxc.C, eleTot sum is:98.000015, tauTot is:0.000000
   18    -703.0282298395      5.30E-06
         cpu  56.37 wall   5.64
in dftxc.C, eleTot sum is:98.000015, tauTot is:0.000000
   19    -703.0282303284      3.40E-06
         cpu  51.37 wall   5.14
in dftxc.C, eleTot sum is:98.000015, tauTot is:0.000000
   20    -703.0282306418      5.64E-07
         cpu  50.39 wall   5.04
in dftxc.C, eleTot sum is:98.000015, tauTot is:0.000000
   21    -703.0282306510      1.32E-07
         cpu  44.38 wall   4.44
in dftxc.C, eleTot sum is:98.000015, tauTot is:0.000000
   22    -703.0282306514      4.24E-08 Convergence criterion met
 ---------------------------------------
 SCF time:  CPU 2016.85 s  wall 213.91 s
 SCF   energy in the final basis set = -703.0282306514
 Total energy in the final basis set = -703.0282306514
 Analysis of SCF Wavefunction
 
 --------------------------------------------------------------
                    Orbital Energies (a.u.)
 --------------------------------------------------------------
 
 Alpha MOs
 -- Occupied --
-46.227 -18.697 -18.697  -9.944  -9.941  -9.919  -9.908  -9.908
 -9.855  -9.854  -9.853  -9.853  -2.979  -1.772  -1.770  -1.766
 -0.887  -0.856  -0.716  -0.694  -0.688  -0.667  -0.622  -0.602
 -0.501  -0.482  -0.423  -0.420  -0.418  -0.410  -0.408  -0.399
 -0.399  -0.390  -0.387  -0.382  -0.381  -0.367  -0.339  -0.331
 -0.325  -0.283  -0.281  -0.262  -0.241  -0.223  -0.209  -0.163
 -0.131
 -- Virtual --
 -0.073  -0.016  -0.012   0.014   0.022   0.026   0.033   0.045
  0.057   0.060   0.068   0.072   0.078   0.088   0.101   0.104
  0.106   0.117   0.118   0.122   0.124   0.134   0.137   0.140
  0.146   0.162   0.163   0.173   0.176   0.191   0.193   0.205
  0.206   0.208   0.218   0.221   0.228   0.239   0.244   0.270
  0.272   0.276   0.284   0.290   0.294   0.301   0.317   0.331
  0.343   0.353   0.359   0.360   0.365   0.367   0.370   0.376
  0.383   0.391   0.395   0.399   0.407   0.410   0.419   0.424
  0.427   0.431   0.439   0.448   0.452   0.455   0.462   0.468
  0.477   0.479   0.481   0.487   0.497   0.504   0.515   0.519
  0.533   0.537   0.554   0.560   0.566   0.574   0.580   0.594
  0.600   0.613   0.620   0.624   0.645   0.650   0.670   0.678
  0.686   0.690   0.696   0.719   0.726   0.727   0.749   0.763
  0.774   0.775   0.789   0.802   0.805   0.819   0.834   0.853
  0.864   0.875   0.877   0.881   0.887   0.895   0.903   0.921
  0.924   0.930   0.938   0.946   0.973   0.987   1.019   1.032
  1.038   1.045   1.074   1.077   1.108   1.133   1.141   1.172
  1.198   1.213   1.216   1.231   1.262   1.268   1.299   1.326
  1.371   1.372   1.387   1.389   1.393   1.393   1.405   1.406
  1.411   1.413   1.415   1.418   1.426   1.428   1.437   1.442
  1.444   1.450   1.455   1.464   1.475   1.481   1.496   1.508
  1.510   1.526   1.538   1.549   1.557   1.574   1.587   1.611
  1.645   1.652   1.668   1.673   1.682   1.737   1.740   1.748
  1.789   1.811   1.816   1.840   1.843   1.858   1.886   1.899
  1.902   1.912   1.920   1.925   1.931   1.941   1.958   1.961
  1.969   1.977   1.995   2.009   2.021   2.034   2.039   2.047
  2.055   2.091   2.094   2.110   2.126   2.136   2.140   2.142
  2.164   2.167   2.188   2.203   2.215   2.223   2.232   2.245
  2.262   2.280   2.311   2.320   2.326   2.331   2.338   2.362
  2.369   2.378   2.390   2.427   2.431   2.443   2.460   2.463
  2.487   2.491   2.496   2.504   2.510   2.512   2.519   2.530
  2.539   2.552   2.564   2.590   2.594   2.615   2.637   2.642
  2.644   2.661   2.690   2.721   2.729   2.730   2.761   2.773
  2.801   2.819   2.840   2.850   2.866   2.871   2.874   2.891
  2.899   2.908   2.918   2.924   2.952   2.953   2.957   2.988
  2.988   2.993   3.005   3.016   3.033   3.089   3.098   3.116
  3.134   3.138   3.143   3.154   3.181   3.184   3.187   3.197
  3.201   3.218   3.222   3.228   3.232   3.247   3.252   3.255
  3.258   3.265   3.267   3.276   3.300   3.328   3.334   3.352
  3.366   3.369   3.374   3.377   3.380   3.387   3.396   3.413
  3.422   3.423   3.445   3.450   3.462   3.475   3.483   3.506
  3.538   3.544   3.577   3.629   3.689   3.718   3.782   3.797
  3.820   3.870   3.978   3.983   3.999   4.008   4.011   4.038
  4.050   4.051   4.070   4.072   4.112   4.120   4.122   4.151
  4.153   4.155   4.164   4.176   4.190   4.204   4.208   4.216
  4.356   4.380   4.411   4.431   4.466   4.487   4.545   4.635
  4.680   4.732   4.785   4.810   4.877   4.938   4.945   5.097
  5.107   5.110   5.124   5.160   5.192   5.244   5.324   5.373
  5.395   5.453   5.503   5.631   5.668   5.826   5.894   6.029
  6.201   6.218   6.250   6.352   6.367   6.401   6.442   6.465
  6.490   6.614   6.625   6.711   6.725   6.871   6.979   6.989
  7.112  21.981  22.033  22.044  22.056  22.447  22.489  22.633
 22.713  23.124  43.791  43.968
 --------------------------------------------------------------
 
          Ground-State Mulliken Net Atomic Charges

     Atom                 Charge (a.u.)
  ----------------------------------------
      1 C                    -0.223122
      2 C                     0.333088
      3 C                     0.338172
      4 C                    -0.223251
      5 C                    -0.100154
      6 C                    -0.100558
      7 O                    -0.633576
      8 O                    -0.631642
      9 Mg                    0.638241
     10 H                     0.063819
     11 H                     0.063943
     12 H                     0.064629
     13 H                     0.064316
     14 C                    -0.543545
     15 H                     0.147345
     16 H                     0.156346
     17 H                     0.141253
     18 H                     0.227766
     19 C                    -0.543655
     20 H                     0.192478
     21 H                     0.187382
     22 H                     0.106466
     23 H                     0.144059
     24 C                    -0.531809
     25 H                     0.154089
     26 H                     0.142701
     27 H                     0.140238
     28 H                     0.224979
  ----------------------------------------
  Sum of atomic charges =    -0.000000

 -----------------------------------------------------------------
                    Cartesian Multipole Moments
 -----------------------------------------------------------------
    Charge (ESU x 10^10)
                 0.0000
    Dipole Moment (Debye)
         X       7.4875      Y       5.1081      Z       4.0013
       Tot       9.9078
    Quadrupole Moments (Debye-Ang)
        XX     -45.6216     XY      26.1523     YY     -61.5513
        XZ      29.7655     YZ      19.5965     ZZ     -55.6954
    Octopole Moments (Debye-Ang^2)
       XXX    -274.9989    XXY     -23.8863    XYY     -60.4422
       YYY    -296.6170    XXZ     -37.9020    XYZ      82.3931
       YYZ     -98.9855    XZZ     -13.0988    YZZ     -37.7596
       ZZZ    -364.0061
    Hexadecapole Moments (Debye-Ang^3)
      XXXX   -2651.9222   XXXY    -639.0176   XXYY    -684.1807
      XYYY    -705.9725   YYYY   -2073.3575   XXXZ    -680.0874
      XXYZ     -51.1677   XYYZ    -165.6917   YYYZ    -755.4697
      XXZZ    -549.0551   XYZZ       4.8274   YYZZ    -596.7870
      XZZZ    -709.8182   YZZZ    -664.5247   ZZZZ   -2426.6016
 -----------------------------------------------------------------
 Calculating analytic gradient of the SCF energy
         cpu  94.38 wall   9.56
in dftxc.C, eleTot sum is:98.000015, tauTot is:0.000000
 Gradient of SCF Energy
            1           2           3           4           5           6
    1  -0.0000008  -0.0000020  -0.0000006   0.0000017   0.0000024   0.0000004
    2  -0.0000026   0.0000004   0.0000037   0.0000044   0.0000024  -0.0000000
    3   0.0000029   0.0000019  -0.0000048  -0.0000096  -0.0000076  -0.0000017
            7           8           9          10          11          12
    1  -0.0000022  -0.0000006  -0.0000022  -0.0000015   0.0000028   0.0000043
    2  -0.0000018   0.0000052   0.0000014  -0.0000042   0.0000067   0.0000040
    3   0.0000061  -0.0000063   0.0000013   0.0000085  -0.0000143  -0.0000110
           13          14          15          16          17          18
    1   0.0000018  -0.0000076  -0.0000034  -0.0000092  -0.0000100  -0.0000071
    2  -0.0000013  -0.0000001  -0.0000042  -0.0000019   0.0000030  -0.0000023
    3   0.0000006   0.0000120   0.0000103   0.0000167   0.0000089   0.0000133
           19          20          21          22          23          24
    1   0.0000093   0.0000074   0.0000084   0.0000072   0.0000136  -0.0000019
    2  -0.0000086  -0.0000086  -0.0000047  -0.0000073  -0.0000117   0.0000047
    3   0.0000001   0.0000034  -0.0000043   0.0000024  -0.0000010  -0.0000043
           25          26          27          28
    1  -0.0000022   0.0000006  -0.0000071  -0.0000015
    2   0.0000072   0.0000015   0.0000087   0.0000061
    3  -0.0000080  -0.0000031  -0.0000031  -0.0000093
 Max gradient component =       1.671E-05
 RMS gradient           =       6.258E-06
 Gradient time:  CPU 135.73 s  wall 16.66 s
 Geometry Optimization Parameters
   NAtoms,    NIC,     NZ,  NCons,   NDum,   NFix, NCnnct, MaxDiis
       28     314       0       0       0       0       0       0


** GEOMETRY OPTIMIZATION IN DELOCALIZED INTERNAL COORDINATES **
   Searching for a Minimum

   Optimization Cycle:   1

                       Coordinates (Angstroms)
     ATOM                X               Y               Z
      1  C         0.9712731500   -0.6519141700    0.7963123000
      2  C         1.4236226100    0.3996744800    1.6027546900
      3  C         0.5176368900    1.4788448100    1.9116516400
      4  C        -0.7839040500    1.4392518000    1.3970499900
      5  C        -1.2127981600    0.3756432400    0.5936301600
      6  C        -0.3355917500   -0.6686044200    0.2929468800
      7  O         2.6960512400    0.4198223500    2.0950718100
      8  O         0.9382764900    2.5165615200    2.6915751400
      9  Mg        2.7546003500    2.1051037400    2.9236335200
     10  H         1.6674073600   -1.4599559700    0.5764174800
     11  H        -1.4540204000    2.2616238800    1.6433349100
     12  H        -2.2307199700    0.3671233100    0.2069070100
     13  H        -0.6628121200   -1.4989774800   -0.3309312200
     14  C         5.2043742000    1.4196713600    3.9394010300
     15  H         5.3571474500    2.3652671300    3.3994798100
     16  H         6.1815513500    1.1148075200    4.3238429900
     17  H         4.5488533000    1.5597284000    4.8103407700
     18  H         4.8263546700    0.6298051800    3.2790411100
     19  C         3.5814410400    3.3736407300    0.5520782700
     20  H         3.5895573100    2.2893264800    0.3932439000
     21  H         2.5654528600    3.7082380600    0.7934648300
     22  H         4.2931482700    3.6616657300    1.3419657400
     23  H         3.9094515200    3.8716545400   -0.3648969600
     24  C         2.9187602700    4.4213514500    4.4367676500
     25  H         2.9762605500    5.3542001200    5.0043815000
     26  H         3.7356266700    4.4480447400    3.7015256600
     27  H         3.0530024900    3.5986473000    5.1522531800
     28  H         1.9383264000    4.3632241900    3.9503362100
   Point Group: c1    Number of degrees of freedom:    78


   Energy is   -703.028230651


 Attempting to Generate Delocalized Internal Coordinates
 GETINT wrote B to file, NVib is           78
 calling HSSCONV
 HCONV 3*NATOMS:           84
 wrote HINT to file
  writing hessian 

 78 Hessian modes will be used to form the next step
  Hessian Eigenvalues:
     0.002000    0.002300    0.003235    0.009505    0.009915    0.011342
     0.012345    0.012545    0.019021    0.022524    0.022662    0.031725
     0.032823    0.033823    0.035697    0.035942    0.039048    0.039545
     0.039792    0.040442    0.041592    0.042923    0.048981    0.082908
     0.115837    0.116925    0.123536    0.159239    0.159541    0.159591
     0.159629    0.159858    0.159888    0.159982    0.159999    0.160000
     0.160000    0.160000    0.160000    0.160000    0.162957    0.168805
     0.176828    0.194125    0.194195    0.194336    0.194405    0.195161
     0.195212    0.206834    0.211609    0.219473    0.223071    0.224637
     0.287737    0.335115    0.337040    0.337531    0.337899    0.338445
     0.340156    0.340649    0.341256    0.341378    0.343744    0.344136
     0.344180    0.349237    0.349301    0.349340    0.349353    0.384972
     0.405120    0.411472    0.426400    0.455471    0.455601    0.458899

 Minimum Search - Taking Simple RFO Step
 Searching for Lamda that Minimizes Along All modes
 Value Taken    Lamda =   0.00000000
 Step Taken.  Stepsize is  0.000028

                             Maximum     Tolerance    Cnvgd?
         Gradient           0.000001      0.000050     YES
         Displacement       0.000013      0.001200     YES
         Energy change     *********      0.000000      NO

 Final energy is   -703.028230651395     


 ******************************
 **  OPTIMIZATION CONVERGED  **
 ******************************

Z-matrix Print:
$molecule
0 1
Mg
O  1 1.876747
C  2 1.364578 1 101.670230
C  3 1.400140 2 121.206074 1 174.733579 0
H  4 1.089040 3 117.873722 2 0.324690 0
C  4 1.400249 3 121.137194 2 -179.809493 0
H  6 1.088941 4 119.737819 3 -179.891405 0
C  6 1.396551 4 119.941067 3 0.053136 0
H  8 1.088952 6 120.317064 4 -179.975349 0
C  8 1.400554 6 119.987671 4 -0.075206 0
H  10 1.088985 8 121.002309 6 -179.688823 0
C  10 1.400289 8 121.155682 6 0.020029 0
O  12 1.364499 10 121.340511 8 179.994374 0
H  13 2.446236 12 171.109034 10 146.952956 0
C  14 1.096751 13 130.798055 12 34.647635 0
H  15 1.093441 14 108.597691 13 -176.446471 0
H  15 1.099027 14 111.305732 13 -59.085621 0
H  15 1.099548 14 111.813270 13 66.020240 0
H  2 2.448416 1 72.931774 3 176.023882 0
C  19 1.096013 2 129.312413 1 12.155820 0
H  20 1.093480 19 108.824198 2 173.325172 0
H  20 1.098537 19 111.017838 2 55.668950 0
H  20 1.099347 19 111.663299 2 -69.152068 0
H  23 2.548871 20 140.729189 19 28.429342 0
C  24 1.101548 23 127.096470 20 -20.210784 0
H  25 1.093825 24 106.758524 23 -133.659368 0
H  25 1.095916 24 110.968042 23 107.599850 0
H  25 1.096565 24 111.160951 23 -15.053026 0
$end

 Analysis of SCF Wavefunction
 
 --------------------------------------------------------------
                    Orbital Energies (a.u.)
 --------------------------------------------------------------
 
 Alpha MOs
 -- Occupied --
-46.227 -18.697 -18.697  -9.944  -9.941  -9.919  -9.908  -9.908
 -9.855  -9.854  -9.853  -9.853  -2.979  -1.772  -1.770  -1.766
 -0.887  -0.856  -0.716  -0.694  -0.688  -0.667  -0.622  -0.602
 -0.501  -0.482  -0.423  -0.420  -0.418  -0.410  -0.408  -0.399
 -0.399  -0.390  -0.387  -0.382  -0.381  -0.367  -0.339  -0.331
 -0.325  -0.283  -0.281  -0.262  -0.241  -0.223  -0.209  -0.163
 -0.131
 -- Virtual --
 -0.073  -0.016  -0.012   0.014   0.022   0.026   0.033   0.045
  0.057   0.060   0.068   0.072   0.078   0.088   0.101   0.104
  0.106   0.117   0.118   0.122   0.124   0.134   0.137   0.140
  0.146   0.162   0.163   0.173   0.176   0.191   0.193   0.205
  0.206   0.208   0.218   0.221   0.228   0.239   0.244   0.270
  0.272   0.276   0.284   0.290   0.294   0.301   0.317   0.331
  0.343   0.353   0.359   0.360   0.365   0.367   0.370   0.376
  0.383   0.391   0.395   0.399   0.407   0.410   0.419   0.424
  0.427   0.431   0.439   0.448   0.452   0.455   0.462   0.468
  0.477   0.479   0.481   0.487   0.497   0.504   0.515   0.519
  0.533   0.537   0.554   0.560   0.566   0.574   0.580   0.594
  0.600   0.613   0.620   0.624   0.645   0.650   0.670   0.678
  0.686   0.690   0.696   0.719   0.726   0.727   0.749   0.763
  0.774   0.775   0.789   0.802   0.805   0.819   0.834   0.853
  0.864   0.875   0.877   0.881   0.887   0.895   0.903   0.921
  0.924   0.930   0.938   0.946   0.973   0.987   1.019   1.032
  1.038   1.045   1.074   1.077   1.108   1.133   1.141   1.172
  1.198   1.213   1.216   1.231   1.262   1.268   1.299   1.326
  1.371   1.372   1.387   1.389   1.393   1.393   1.405   1.406
  1.411   1.413   1.415   1.418   1.426   1.428   1.437   1.442
  1.444   1.450   1.455   1.464   1.475   1.481   1.496   1.508
  1.510   1.526   1.538   1.549   1.557   1.574   1.587   1.611
  1.645   1.652   1.668   1.673   1.682   1.737   1.740   1.748
  1.789   1.811   1.816   1.840   1.843   1.858   1.886   1.899
  1.902   1.912   1.920   1.925   1.931   1.941   1.958   1.961
  1.969   1.977   1.995   2.009   2.021   2.034   2.039   2.047
  2.055   2.091   2.094   2.110   2.126   2.136   2.140   2.142
  2.164   2.167   2.188   2.203   2.215   2.223   2.232   2.245
  2.262   2.280   2.311   2.320   2.326   2.331   2.338   2.362
  2.369   2.378   2.390   2.427   2.431   2.443   2.460   2.463
  2.487   2.491   2.496   2.504   2.510   2.512   2.519   2.530
  2.539   2.552   2.564   2.590   2.594   2.615   2.637   2.642
  2.644   2.661   2.690   2.721   2.729   2.730   2.761   2.773
  2.801   2.819   2.840   2.850   2.866   2.871   2.874   2.891
  2.899   2.908   2.918   2.924   2.952   2.953   2.957   2.988
  2.988   2.993   3.005   3.016   3.033   3.089   3.098   3.116
  3.134   3.138   3.143   3.154   3.181   3.184   3.187   3.197
  3.201   3.218   3.222   3.228   3.232   3.247   3.252   3.255
  3.258   3.265   3.267   3.276   3.300   3.328   3.334   3.352
  3.366   3.369   3.374   3.377   3.380   3.387   3.396   3.413
  3.422   3.423   3.445   3.450   3.462   3.475   3.483   3.506
  3.538   3.544   3.577   3.629   3.689   3.718   3.782   3.797
  3.820   3.870   3.978   3.983   3.999   4.008   4.011   4.038
  4.050   4.051   4.070   4.072   4.112   4.120   4.122   4.151
  4.153   4.155   4.164   4.176   4.190   4.204   4.208   4.216
  4.356   4.380   4.411   4.431   4.466   4.487   4.545   4.635
  4.680   4.732   4.785   4.810   4.877   4.938   4.945   5.097
  5.107   5.110   5.124   5.160   5.192   5.244   5.324   5.373
  5.395   5.453   5.503   5.631   5.668   5.826   5.894   6.029
  6.201   6.218   6.250   6.352   6.367   6.401   6.442   6.465
  6.490   6.614   6.625   6.711   6.725   6.871   6.979   6.989
  7.112  21.981  22.033  22.044  22.056  22.447  22.489  22.633
 22.713  23.124  43.791  43.968
 --------------------------------------------------------------
 
          Ground-State Mulliken Net Atomic Charges

     Atom                 Charge (a.u.)
  ----------------------------------------
      1 C                    -0.223122
      2 C                     0.333088
      3 C                     0.338172
      4 C                    -0.223251
      5 C                    -0.100154
      6 C                    -0.100558
      7 O                    -0.633576
      8 O                    -0.631642
      9 Mg                    0.638241
     10 H                     0.063819
     11 H                     0.063943
     12 H                     0.064629
     13 H                     0.064316
     14 C                    -0.543545
     15 H                     0.147345
     16 H                     0.156346
     17 H                     0.141253
     18 H                     0.227766
     19 C                    -0.543655
     20 H                     0.192478
     21 H                     0.187382
     22 H                     0.106466
     23 H                     0.144059
     24 C                    -0.531809
     25 H                     0.154089
     26 H                     0.142701
     27 H                     0.140238
     28 H                     0.224979
  ----------------------------------------
  Sum of atomic charges =    -0.000000

 -----------------------------------------------------------------
                    Cartesian Multipole Moments
 -----------------------------------------------------------------
    Charge (ESU x 10^10)
                 0.0000
    Dipole Moment (Debye)
         X       7.4875      Y       5.1081      Z       4.0013
       Tot       9.9078
    Quadrupole Moments (Debye-Ang)
        XX     -45.6216     XY      26.1523     YY     -61.5513
        XZ      29.7655     YZ      19.5965     ZZ     -55.6954
    Octopole Moments (Debye-Ang^2)
       XXX    -274.9989    XXY     -23.8863    XYY     -60.4422
       YYY    -296.6170    XXZ     -37.9020    XYZ      82.3931
       YYZ     -98.9855    XZZ     -13.0988    YZZ     -37.7596
       ZZZ    -364.0061
    Hexadecapole Moments (Debye-Ang^3)
      XXXX   -2651.9222   XXXY    -639.0176   XXYY    -684.1807
      XYYY    -705.9725   YYYY   -2073.3575   XXXZ    -680.0874
      XXYZ     -51.1677   XYYZ    -165.6917   YYYZ    -755.4697
      XXZZ    -549.0551   XYZZ       4.8274   YYZZ    -596.7870
      XZZZ    -709.8182   YZZZ    -664.5247   ZZZZ   -2426.6016
 -----------------------------------------------------------------
Archival summary:
1\1\compute-0-7.local\OPT\ProcedureUnspecified\BasisUnspecified\g12916\tsivion\SatJul1922:25:362014SatJul1922:25:362014\0\\#,OPT,ProcedureUnspecified,BasisUnspecified,\\0,1\Mg\O,1,1.87675\C,2,1.36458,1,101.67\C,3,1.40014,2,121.206,1,174.734,0\H,4,1.08904,3,117.874,2,0.32469,0\C,4,1.40025,3,121.137,2,-179.809,0\H,6,1.08894,4,119.738,3,-179.891,0\C,6,1.39655,4,119.941,3,0.0531362,0\H,8,1.08895,6,120.317,4,-179.975,0\C,8,1.40055,6,119.988,4,-0.0752062,0\H,10,1.08898,8,121.002,6,-179.689,0\C,10,1.40029,8,121.156,6,0.0200286,0\O,12,1.3645,10,121.341,8,179.994,0\H,13,2.44624,12,171.109,10,146.953,0\C,14,1.09675,13,130.798,12,34.6476,0\H,15,1.09344,14,108.598,13,-176.446,0\H,15,1.09903,14,111.306,13,-59.0856,0\H,15,1.09955,14,111.813,13,66.0202,0\H,2,2.44842,1,72.9318,3,176.024,0\C,19,1.09601,2,129.312,1,12.1558,0\H,20,1.09348,19,108.824,2,173.325,0\H,20,1.09854,19,111.018,2,55.6689,0\H,20,1.09935,19,111.663,2,-69.1521,0\H,23,2.54887,20,140.729,19,28.4293,0\C,24,1.10155,23,127.096,20,-20.2108,0\H,25,1.09382,24,106.759,23,-133.659,0\H,25,1.09592,24,110.968,23,107.6,0\H,25,1.09657,24,111.161,23,-15.053,0\\\@

 Total job time:  233.18s(wall), 2163.18s(cpu) 
 Sat Jul 19 22:25:36 2014

======= MOLDEN-FORMATTED INPUT FILE FOLLOWS =======
[Molden Format]
[Atoms] (Angs)
  C      1    6      0.97127315     -0.65191417      0.79631230
  C      2    6      1.42362261      0.39967448      1.60275469
  C      3    6      0.51763689      1.47884481      1.91165164
  C      4    6     -0.78390405      1.43925180      1.39704999
  C      5    6     -1.21279816      0.37564324      0.59363016
  C      6    6     -0.33559175     -0.66860442      0.29294688
  O      7    8      2.69605124      0.41982235      2.09507181
  O      8    8      0.93827649      2.51656152      2.69157514
 Mg      9   12      2.75460035      2.10510374      2.92363352
  H     10    1      1.66740736     -1.45995597      0.57641748
  H     11    1     -1.45402040      2.26162388      1.64333491
  H     12    1     -2.23071997      0.36712331      0.20690701
  H     13    1     -0.66281212     -1.49897748     -0.33093122
  C     14    6      5.20437420      1.41967136      3.93940103
  H     15    1      5.35714745      2.36526713      3.39947981
  H     16    1      6.18155135      1.11480752      4.32384299
  H     17    1      4.54885330      1.55972840      4.81034077
  H     18    1      4.82635467      0.62980518      3.27904111
  C     19    6      3.58144104      3.37364073      0.55207827
  H     20    1      3.58955731      2.28932648      0.39324390
  H     21    1      2.56545286      3.70823806      0.79346483
  H     22    1      4.29314827      3.66166573      1.34196574
  H     23    1      3.90945152      3.87165454     -0.36489696
  C     24    6      2.91876027      4.42135145      4.43676765
  H     25    1      2.97626055      5.35420012      5.00438150
  H     26    1      3.73562667      4.44804474      3.70152566
  H     27    1      3.05300249      3.59864730      5.15225318
  H     28    1      1.93832640      4.36322419      3.95033621
[GEOCONV]
energy
     -703.0282306514
max-force
        0.0000011223
max-step
        0.0000128498
[GEOMETRIES] (XYZ)
  28
Step 1
  C      0.97127315     -0.65191417      0.79631230
  C      1.42362261      0.39967448      1.60275469
  C      0.51763689      1.47884481      1.91165164
  C     -0.78390405      1.43925180      1.39704999
  C     -1.21279816      0.37564324      0.59363016
  C     -0.33559175     -0.66860442      0.29294688
  O      2.69605124      0.41982235      2.09507181
  O      0.93827649      2.51656152      2.69157514
 Mg      2.75460035      2.10510374      2.92363352
  H      1.66740736     -1.45995597      0.57641748
  H     -1.45402040      2.26162388      1.64333491
  H     -2.23071997      0.36712331      0.20690701
  H     -0.66281212     -1.49897748     -0.33093122
  C      5.20437420      1.41967136      3.93940103
  H      5.35714745      2.36526713      3.39947981
  H      6.18155135      1.11480752      4.32384299
  H      4.54885330      1.55972840      4.81034077
  H      4.82635467      0.62980518      3.27904111
  C      3.58144104      3.37364073      0.55207827
  H      3.58955731      2.28932648      0.39324390
  H      2.56545286      3.70823806      0.79346483
  H      4.29314827      3.66166573      1.34196574
  H      3.90945152      3.87165454     -0.36489696
  C      2.91876027      4.42135145      4.43676765
  H      2.97626055      5.35420012      5.00438150
  H      3.73562667      4.44804474      3.70152566
  H      3.05300249      3.59864730      5.15225318
  H      1.93832640      4.36322419      3.95033621

======= END OF MOLDEN-FORMATTED INPUT FILE =======


        *************************************************************
        *                                                           *
        *  Thank you very much for using Q-Chem.  Have a nice day.  *
        *                                                           *
        *************************************************************


 
User input: 2 of 3 
 
                  Welcome to Q-Chem
     A Quantum Leap Into The Future Of Chemistry


 Q-Chem 4.2, Q-Chem, Inc., Pleasanton, CA (2014).

 Y. Shao,  Z. Gan,  E. Epifanovsky,  A. T. B. Gilbert,  M. Wormit,  
 J. Kussmann,  A. W. Lange,  A. Behn,  J. Deng,  X. Feng,  D. Ghosh,  
 M. Goldey,  P. R. Horn,  L. D. Jacobson,  I. Kaliman,  R. Z. Khaliullin,  
 T. Kus,  A. Landau,  J. Liu,  E. I. Proynov,  Y. M. Rhee,  R. M. Richard,  
 M. A. Rohrdanz,  R. P. Steele,  E. J. Sundstrom,  H. L. Woodcock III,  
 P. M. Zimmerman,  D. Zuev,  B. Albrecht,  E. Alguire,  B. Austin,  
 G. J. O. Beran,  Y. A. Bernard,  E. Berquist,  K. Brandhorst,  
 K. B. Bravaya,  S. T. Brown,  D. Casanova,  C.-M. Chang,  Y. Chen,  
 S. H. Chien,  K. D. Closser,  D. L. Crittenden,  M. Diedenhofen,  
 R. A. DiStasio Jr.,  H. Do,  A. D. Dutoi,  R. G. Edgar,  S. Fatehi,  
 L. Fusti-Molnar,  A. Ghysels,  A. Golubeva-Zadorozhnaya,  J. Gomes,  
 M. W. D. Hanson-Heine,  P. H. P. Harbach,  A. W. Hauser,  E. G. Hohenstein,  
 Z. C. Holden,  T.-C. Jagau,  H. Ji,  B. Kaduk,  K. Khistyaev,  Jaehoon Kim,  
 Jihan Kim,  R. A. King,  P. Klunzinger,  D. Kosenkov,  T. Kowalczyk,  
 C. M. Krauter,  K. U. Lao,  A. Laurent,  K. V. Lawler,  S. V. Levchenko,  
 C. Y. Lin,  F. Liu,  E. Livshits,  R. C. Lochan,  A. Luenser,  P. Manohar,  
 S. F. Manzer,  S.-P. Mao,  N. Mardirossian,  A. V. Marenich,  S. A. Maurer,  
 N. J. Mayhall,  C. M. Oana,  R. Olivares-Amaya,  D. P. O'Neill,  
 J. A. Parkhill,  T. M. Perrine,  R. Peverati,  P. A. Pieniazek,  A. Prociuk,  
 D. R. Rehn,  E. Rosta,  N. J. Russ,  N. Sergueev,  S. M. Sharada,  
 S. Sharma,  D. W. Small,  A. Sodt,  T. Stein,  D. Stuck,  Y.-C. Su,  
 A. J. W. Thom,  T. Tsuchimochi,  L. Vogt,  O. Vydrov,  T. Wang,  
 M. A. Watson,  J. Wenzel,  A. White,  C. F. Williams,  V. Vanovschi,  
 S. Yeganeh,  S. R. Yost,  Z.-Q. You,  I. Y. Zhang,  X. Zhang,  Y. Zhao,  
 B. R. Brooks,  G. K. L. Chan,  D. M. Chipman,  C. J. Cramer,  
 W. A. Goddard III,  M. S. Gordon,  W. J. Hehre,  A. Klamt,  
 H. F. Schaefer III,  M. W. Schmidt,  C. D. Sherrill,  D. G. Truhlar,  
 A. Warshel,  X. Xu,  A. Aspuru-Guzik,  R. Baer,  A. T. Bell,  N. A. Besley,  
 J.-D. Chai,  A. Dreuw,  B. D. Dunietz,  T. R. Furlani,  S. R. Gwaltney,  
 C.-P. Hsu,  Y. Jung,  J. Kong,  D. S. Lambrecht,  W. Liang,  C. Ochsenfeld,  
 V. A. Rassolov,  L. V. Slipchenko,  J. E. Subotnik,  T. Van Voorhis,  
 J. M. Herbert,  A. I. Krylov,  P. M. W. Gill,  M. Head-Gordon

 Contributors to earlier versions of Q-Chem not listed above: 
 R. D. Adamson,  J. Baker,  E. F. C. Byrd,  A. K. Chakraborty,  C.-L. Cheng,  
 H. Dachsel,  R. J. Doerksen,  G. Hawkins,  A. Heyden,  S. Hirata,  
 G. Kedziora,  F. J. Keil,  C. Kelley,  P. P. Korambath,  W. Kurlancheek,  
 A. M. Lee,  M. S. Lee,  D. Liotard,  I. Lotan,  P. E. Maslen,  N. Nair,  
 D. Neuhauser,  R. Olson,  B. Peters,  J. Ritchie,  N. E. Schultz,  
 N. Shenvi,  A. C. Simmonett,  K. S. Thanthiriwatte,  Q. Wu,  W. Zhang

 Q-Chem 4.2.0 for Intel X86 EM64T Linux

 Parts of Q-Chem use Armadillo 4.100.2 (Dirt Cruiser).
 http://arma.sourceforge.net/

 Q-Chem begins on Sat Jul 19 22:25:36 2014  

Host: compute-0-7.local
0

     Scratch files written to /scratch/tsivion/cat-mg-3Me-opt-freq.in20140719222137//
 Jun314 |home|tsivion|software|qchem411|libmdc|qstr_info.C -1
Finally everything over in PARseQInput

--------------------------------------------------------------
User input:
--------------------------------------------------------------

$comment
$end

$molecule
read
$end

$rem
	jobtype 				freq
	exchange 				b97-d
	scf_guess				read
	dft_d					empirical_grimme3
	basis 					gen ! def2-tzvp
	max_scf_cycles 			200
	symmetry 				false
	sym_ignore 				true
	molden_format			true
	nbo						false
	scf_convergence 		8
	thresh					13
	mem_static				3000
	mem_total				8000
	DFT_D3_RS6 				892
	DFT_D3_S8  				909
$end

$basis ! def2-tzvp
****
H     0 
S   3   1.00
     34.0613410              0.60251978E-02   
      5.1235746              0.45021094E-01   
      1.1646626              0.20189726       
S   1   1.00
      0.32723041             1.0000000        
S   1   1.00
      0.10307241             1.0000000        
P   1   1.00
      0.8000000              1.0000000        
****
C     0 
S   6   1.00
  13575.3496820              0.22245814352E-03      
   2035.2333680              0.17232738252E-02      
    463.22562359             0.89255715314E-02      
    131.20019598             0.35727984502E-01      
     42.853015891            0.11076259931    
     15.584185766            0.24295627626    
S   2   1.00
      6.2067138508           0.41440263448    
      2.5764896527           0.23744968655    
S   1   1.00
      0.57696339419          1.0000000        
S   1   1.00
      0.22972831358          1.0000000        
S   1   1.00
      0.95164440028E-01            1.0000000        
P   4   1.00
     34.697232244            0.53333657805E-02      
      7.9582622826           0.35864109092E-01      
      2.3780826883           0.14215873329    
      0.81433208183          0.34270471845    
P   1   1.00
      0.28887547253          1.0000000        
P   1   1.00
      0.10056823671          1.0000000        
D   1   1.00
      1.09700000             1.0000000        
D   1   1.00
      0.31800000             1.0000000        
F   1   1.00
      0.76100000             1.0000000        
****
N     0 
S   6   1.00
  19730.8006470              0.21887984991E-03      
   2957.8958745              0.16960708803E-02      
    673.22133595             0.87954603538E-02      
    190.68249494             0.35359382605E-01      
     62.295441898            0.11095789217    
     22.654161182            0.24982972552    
S   2   1.00
      8.9791477428           0.40623896148    
      3.6863002370           0.24338217176    
S   1   1.00
      0.84660076805          1.0000000        
S   1   1.00
      0.33647133771          1.0000000        
S   1   1.00
      0.13647653675          1.0000000        
P   4   1.00
     49.200380510            0.55552416751E-02      
     11.346790537            0.38052379723E-01      
      3.4273972411           0.14953671029    
      1.1785525134           0.34949305230    
P   1   1.00
      0.41642204972          1.0000000        
P   1   1.00
      0.14260826011          1.0000000        
D   1   1.00
      1.65400000             1.0000000        
D   1   1.00
      0.46900000             1.0000000        
F   1   1.00
      1.09300000             1.0000000        
****
O     0 
S   6   1.00
  27032.3826310              0.21726302465E-03      
   4052.3871392              0.16838662199E-02      
    922.32722710             0.87395616265E-02      
    261.24070989             0.35239968808E-01      
     85.354641351            0.11153519115    
     31.035035245            0.25588953961    
S   2   1.00
     12.260860728            0.39768730901    
      4.9987076005           0.24627849430    
S   1   1.00
      1.1703108158           1.0000000        
S   1   1.00
      0.46474740994          1.0000000        
S   1   1.00
      0.18504536357          1.0000000        
P   4   1.00
     63.274954801            0.60685103418E-02      
     14.627049379            0.41912575824E-01      
      4.4501223456           0.16153841088    
      1.5275799647           0.35706951311    
P   1   1.00
      0.52935117943          1.0000000        
P   1   1.00
      0.17478421270          1.0000000        
D   1   1.00
      2.31400000             1.0000000        
D   1   1.00
      0.64500000             1.0000000        
F   1   1.00
      1.42800000             1.0000000        
****
Mg     0 
S   7   1.00
  31438.3495550              0.60912311326E-03      
   4715.5153354              0.47066196465E-02      
   1073.1629247              0.24135820657E-01      
    303.57238768             0.93628959834E-01      
     98.626251042            0.26646742093    
     34.943808417            0.47890929917    
     12.859785199            0.33698490286    
S   3   1.00
     64.876913004            0.19180889307E-01      
     19.725520777            0.90913704392E-01      
      2.8951804339          -0.39563756125    
S   2   1.00
      1.1960454710           1.6827603373     
      0.54329451156          0.52141091954    
S   1   1.00
      0.10099104092          1.0000000        
S   1   1.00
      0.36865728085E-01            1.0000000        
P   5   1.00
    179.87189612             0.53799549018E-02      
     42.120069376            0.39318014098E-01      
     13.120503032            0.15740129476    
      4.6257503609           0.35919094128    
      1.6695211016           0.45533379310    
P   1   1.00
      0.58551012105          1.0000000        
P   1   1.00
      0.18914796195          1.0000000        
P   1   1.00
      0.53768755187E-01            1.0000000        
D   1   1.00
      3.4440000              1.0000000        
D   1   1.00
      0.2900000              1.0000000        
D   1   1.00
      0.0700000              1.0000000        
****
Ca     0 
S   8   1.00
 172517.3268500              0.23317502546E-03      
  25861.5192750              0.18076521980E-02      
   5885.6618668              0.93943844255E-02      
   1665.9730031              0.38108409009E-01      
    542.36718148             0.12331203853    
    194.57803492             0.29004470954    
     75.303597636            0.40587151157    
     29.574062589            0.20398410743    
S   4   1.00
    191.20074660            -0.24419759759E-01      
     58.840299883           -0.11547027448    
      8.9642540845           0.56356636717    
      3.6856960541           0.56709682704    
S   2   1.00
      5.2464289726          -0.22825334325    
      0.84862621528          0.72625219172    
S   1   1.00
      0.36743300538          1.0000000        
S   1   1.00
      0.66821582613E-01            1.0000000        
S   1   1.00
      0.26759730445E-01            1.0000000        
P   6   1.00
    836.97262058             0.25258346092E-02      
    197.93040142             0.20076506686E-01      
     63.135558054            0.91302987366E-01      
     23.282687170            0.25247029915    
      9.1176444932           0.39426326344    
      3.6336120139           0.23011559492    
P   3   1.00
     13.494163120           -0.26495021951E-01      
      1.8139259790           0.55088108210    
      0.71981826006          1.0280616620     
P   1   1.00
      0.27629576992          1.0000000        
P   1   1.00
      0.0749790              1.0000000        
P   1   1.00
      0.0269270              1.0000000        
D   2   1.00
      5.4979093879           0.73770011433E-01      
      1.3177128032           0.26052853169    
D   1   1.00
      0.32188682649          1.0000000        
D   1   1.00
      0.70528614919E-01            1.0000000        
****
$end


--------------------------------------------------------------
 ----------------------------------------------------------------
             Standard Nuclear Orientation (Angstroms)
    I     Atom           X                Y                Z
 ----------------------------------------------------------------
    1      C       0.9712731500    -0.6519141700     0.7963123000
    2      C       1.4236226100     0.3996744800     1.6027546900
    3      C       0.5176368900     1.4788448100     1.9116516400
    4      C      -0.7839040500     1.4392518000     1.3970499900
    5      C      -1.2127981600     0.3756432400     0.5936301600
    6      C      -0.3355917500    -0.6686044200     0.2929468800
    7      O       2.6960512400     0.4198223500     2.0950718100
    8      O       0.9382764900     2.5165615200     2.6915751400
    9      Mg      2.7546003500     2.1051037400     2.9236335200
   10      H       1.6674073600    -1.4599559700     0.5764174800
   11      H      -1.4540204000     2.2616238800     1.6433349100
   12      H      -2.2307199700     0.3671233100     0.2069070100
   13      H      -0.6628121200    -1.4989774800    -0.3309312200
   14      C       5.2043742000     1.4196713600     3.9394010300
   15      H       5.3571474500     2.3652671300     3.3994798100
   16      H       6.1815513500     1.1148075200     4.3238429900
   17      H       4.5488533000     1.5597284000     4.8103407700
   18      H       4.8263546700     0.6298051800     3.2790411100
   19      C       3.5814410400     3.3736407300     0.5520782700
   20      H       3.5895573100     2.2893264800     0.3932439000
   21      H       2.5654528600     3.7082380600     0.7934648300
   22      H       4.2931482700     3.6616657300     1.3419657400
   23      H       3.9094515200     3.8716545400    -0.3648969600
   24      C       2.9187602700     4.4213514500     4.4367676500
   25      H       2.9762605500     5.3542001200     5.0043815000
   26      H       3.7356266700     4.4480447400     3.7015256600
   27      H       3.0530024900     3.5986473000     5.1522531800
   28      H       1.9383264000     4.3632241900     3.9503362100
 ----------------------------------------------------------------
 Nuclear Repulsion Energy =   778.0697875661 hartrees
 There are       49 alpha and       49 beta electrons

 Q-Chem warning in module /home/tsivion/software/qchem411/forms1/BasisType.C, line 1209:

 Setting pure/cartesian flag to 2111 for general basis


 Requested basis set is non-standard
 There are 197 shells and 469 basis functions

Total QAlloc Memory Limit   8000 MB
Mega-Array Size      2933 MB
MEM_STATIC part      3000 MB
 A cutoff of  1.0D-13 yielded  15583 shell pairs
 There are     88485 function pairs (    111378 Cartesian)
 Smallest overlap matrix eigenvalue = 8.75E-06
 Guess MOs from SCF MO coefficient file
Reading MOs from coefficient file
 Size of previous SCF MO coefficient file: 440860 (expected); 699740 (actual). 

 Q-Chem warning in module /home/tsivion/software/qchem411/gesman/GuessMan.C, line 662:

 Inconsistent size for SCF MO coefficient file.  Please check basis and PURECART setting.

Reading MOs from coefficient file
 A restricted Kohn-Sham SCF calculation will be
 performed using Pulay DIIS extrapolation
 Exchange:  B97D      Correlation:  B97-D
 Using SG-1 standard quadrature grid
 SCF converges when DIIS error is below 1.0E-08
 using 10 threads for integral computing 
 
 -------------------------------------------------------
 OpenMP Integral Computing Module                       
 Release: version 1.0, May 2013, Q-Chem Inc. Pittsburgh 
 -------------------------------------------------------
 Integral Job Info:
 Integral job number is                      20
 Integral operator is                         1
 short-range coefficients               -999999
 long-range coefficients                -999999
 Omega coefficients                           0
 if combine SR and LR in K              -999999
 Integral screening is                        1
 Integral computing path is                   2
 max size of driver memory is            800000
 size of driver memory is                776850
 size of scratch memory is              2620350
 max col of scratch BK array              10000
 max len of scratch array in speh3          662
 max len of scratch index in speh4           32
 max int batch size is                       50
 min int batch size is                       15
 fixed nKL is                                15
 max L of basis functions is                  3
 order of int derivative is                   0
 number of shells is                        197
 number of basis is                         527
 number of cartesian basis is               527
 number of contracted shell pairs         15583
 number of primitive shell pairs          32994
 maxK2 (contraction) of shell pair           49
 max number of K2 of shell pair               1
 max number of CS2 of shell pair           2678
 max number of PS2 of shell pair           3786
 mem total for path MDJ                  241360
 -------------------------------------------------------
         cpu  75.06 wall   7.51
 -------------------------------------------------------
 OpenMP BLAS3 based DFT computing Module                
 Release: version 1.0, May 2013, Q-Chem Inc. Pittsburgh 
 -------------------------------------------------------
in dftxc.C, eleTot sum is:98.000015, tauTot is:0.000000
 ---------------------------------------
  Cycle       Energy         DIIS Error
 ---------------------------------------
    1    -703.0282306526      1.52E-08
         cpu  78.28 wall   7.83
in dftxc.C, eleTot sum is:98.000015, tauTot is:0.000000
    2    -703.0282306526      2.90E-08
         cpu  36.68 wall   3.67
in dftxc.C, eleTot sum is:98.000015, tauTot is:0.000000
    3    -703.0282306526      5.06E-09 Convergence criterion met
 ---------------------------------------
 SCF time:  CPU 260.69 s  wall 27.10 s
 SCF   energy in the final basis set = -703.0282306526
 Total energy in the final basis set = -703.0282306526
 Analysis of SCF Wavefunction
 
 --------------------------------------------------------------
                    Orbital Energies (a.u.)
 --------------------------------------------------------------
 
 Alpha MOs
 -- Occupied --
-46.227 -18.697 -18.697  -9.944  -9.941  -9.919  -9.908  -9.908
 -9.855  -9.854  -9.853  -9.853  -2.979  -1.772  -1.770  -1.766
 -0.887  -0.856  -0.716  -0.694  -0.688  -0.667  -0.622  -0.602
 -0.501  -0.482  -0.423  -0.420  -0.418  -0.410  -0.408  -0.399
 -0.399  -0.390  -0.387  -0.382  -0.381  -0.367  -0.339  -0.331
 -0.325  -0.283  -0.281  -0.262  -0.241  -0.223  -0.209  -0.163
 -0.131
 -- Virtual --
 -0.073  -0.016  -0.012   0.014   0.022   0.026   0.033   0.045
  0.057   0.060   0.068   0.072   0.078   0.088   0.101   0.104
  0.106   0.117   0.118   0.122   0.124   0.134   0.137   0.140
  0.146   0.162   0.163   0.173   0.176   0.191   0.193   0.205
  0.206   0.208   0.218   0.221   0.228   0.239   0.244   0.270
  0.272   0.276   0.284   0.290   0.294   0.301   0.317   0.331
  0.343   0.353   0.359   0.360   0.365   0.367   0.370   0.376
  0.383   0.391   0.395   0.399   0.407   0.410   0.419   0.424
  0.427   0.431   0.439   0.448   0.452   0.455   0.462   0.468
  0.477   0.479   0.481   0.487   0.497   0.504   0.515   0.519
  0.533   0.537   0.554   0.560   0.566   0.574   0.580   0.594
  0.600   0.613   0.620   0.624   0.645   0.650   0.670   0.678
  0.686   0.690   0.696   0.719   0.726   0.727   0.749   0.763
  0.774   0.775   0.789   0.802   0.805   0.819   0.834   0.853
  0.864   0.875   0.877   0.881   0.887   0.895   0.903   0.921
  0.924   0.930   0.938   0.946   0.973   0.987   1.019   1.032
  1.038   1.045   1.074   1.077   1.108   1.133   1.141   1.172
  1.198   1.213   1.216   1.231   1.262   1.268   1.299   1.326
  1.371   1.372   1.387   1.389   1.393   1.393   1.405   1.406
  1.411   1.413   1.415   1.418   1.426   1.428   1.437   1.442
  1.444   1.450   1.455   1.464   1.475   1.481   1.496   1.508
  1.510   1.526   1.538   1.549   1.557   1.574   1.587   1.611
  1.645   1.652   1.668   1.673   1.682   1.737   1.740   1.748
  1.789   1.811   1.816   1.840   1.843   1.858   1.886   1.899
  1.902   1.912   1.920   1.925   1.931   1.941   1.958   1.961
  1.969   1.977   1.995   2.009   2.021   2.034   2.039   2.047
  2.055   2.091   2.094   2.110   2.126   2.136   2.140   2.142
  2.164   2.167   2.188   2.203   2.215   2.223   2.232   2.245
  2.262   2.280   2.311   2.320   2.326   2.331   2.338   2.362
  2.369   2.378   2.390   2.427   2.431   2.443   2.460   2.463
  2.487   2.491   2.496   2.504   2.510   2.512   2.519   2.530
  2.539   2.552   2.564   2.590   2.594   2.615   2.637   2.642
  2.644   2.661   2.690   2.721   2.729   2.730   2.761   2.773
  2.801   2.819   2.840   2.850   2.866   2.871   2.874   2.891
  2.899   2.908   2.918   2.924   2.952   2.953   2.957   2.988
  2.988   2.993   3.005   3.016   3.033   3.089   3.098   3.116
  3.134   3.138   3.143   3.154   3.181   3.184   3.187   3.197
  3.201   3.218   3.222   3.228   3.232   3.247   3.252   3.255
  3.258   3.265   3.267   3.276   3.300   3.328   3.334   3.352
  3.366   3.369   3.374   3.377   3.380   3.387   3.396   3.413
  3.422   3.423   3.445   3.450   3.462   3.475   3.483   3.506
  3.538   3.544   3.577   3.629   3.689   3.718   3.782   3.797
  3.820   3.870   3.978   3.983   3.999   4.008   4.011   4.038
  4.050   4.051   4.070   4.072   4.112   4.120   4.122   4.151
  4.153   4.155   4.164   4.176   4.190   4.204   4.208   4.216
  4.356   4.380   4.411   4.431   4.466   4.487   4.545   4.635
  4.680   4.732   4.785   4.810   4.877   4.938   4.945   5.097
  5.107   5.110   5.124   5.160   5.192   5.244   5.324   5.373
  5.395   5.453   5.503   5.631   5.668   5.826   5.894   6.029
  6.201   6.218   6.250   6.352   6.367   6.401   6.442   6.465
  6.490   6.614   6.625   6.711   6.725   6.871   6.979   6.989
  7.112  21.981  22.033  22.044  22.056  22.447  22.489  22.633
 22.713  23.124  43.791  43.968
 --------------------------------------------------------------
 
          Ground-State Mulliken Net Atomic Charges

     Atom                 Charge (a.u.)
  ----------------------------------------
      1 C                    -0.223125
      2 C                     0.333089
      3 C                     0.338172
      4 C                    -0.223252
      5 C                    -0.100155
      6 C                    -0.100554
      7 O                    -0.633576
      8 O                    -0.631643
      9 Mg                    0.638241
     10 H                     0.063819
     11 H                     0.063943
     12 H                     0.064629
     13 H                     0.064316
     14 C                    -0.543545
     15 H                     0.147345
     16 H                     0.156346
     17 H                     0.141253
     18 H                     0.227766
     19 C                    -0.543656
     20 H                     0.192479
     21 H                     0.187383
     22 H                     0.106466
     23 H                     0.144059
     24 C                    -0.531809
     25 H                     0.154089
     26 H                     0.142701
     27 H                     0.140238
     28 H                     0.224979
  ----------------------------------------
  Sum of atomic charges =    -0.000000

 -----------------------------------------------------------------
                    Cartesian Multipole Moments
 -----------------------------------------------------------------
    Charge (ESU x 10^10)
                -0.0000
    Dipole Moment (Debye)
         X       7.4875      Y       5.1081      Z       4.0013
       Tot       9.9078
    Quadrupole Moments (Debye-Ang)
        XX     -45.6216     XY      26.1523     YY     -61.5513
        XZ      29.7655     YZ      19.5965     ZZ     -55.6955
    Octopole Moments (Debye-Ang^2)
       XXX    -274.9988    XXY     -23.8864    XYY     -60.4422
       YYY    -296.6169    XXZ     -37.9020    XYZ      82.3931
       YYZ     -98.9855    XZZ     -13.0988    YZZ     -37.7596
       ZZZ    -364.0061
    Hexadecapole Moments (Debye-Ang^3)
      XXXX   -2651.9213   XXXY    -639.0178   XXYY    -684.1808
      XYYY    -705.9724   YYYY   -2073.3569   XXXZ    -680.0871
      XXYZ     -51.1679   XYYZ    -165.6919   YYYZ    -755.4695
      XXZZ    -549.0549   XYZZ       4.8274   YYZZ    -596.7867
      XZZZ    -709.8181   YZZZ    -664.5246   ZZZZ   -2426.6016
 -----------------------------------------------------------------
 Calculating MO derivatives via CPSCF
OV_DIM:  Setting MaxSz  = 20580
OV_DIM:  Setting MaxSpc = 20580
   1         3          84      0.275627    0.050737
   2         3          84      0.030426    0.005008
   3         3          84      0.001816    0.000328
   4        66          21      0.000071    0.000015
   5        87           0      0.000000    0.000000    Roots Converged
 Calculating analytic Hessian of the SCF energy
 Polarizability Matrix (a.u.)
            1           2           3
    1-168.5616037 -13.5186415 -30.6199286
    2 -13.5186415-146.2501971 -27.9993912
    3 -30.6199286 -27.9993912-133.3992543
 J construction time:  CPU 8048.57 s  wall 8048.44 s
 
 Direct stationary perturbation theory relativistic correction:
 
 rels  =       0.303529416489
 relv  =      -1.424308208059
 rel2e =       0.000000000000
 E_rel =      -1.120778791570
 
 Hessian of the SCF Energy
            1           2           3           4           5           6
    1   0.6209959  -0.1099165   0.1292694  -0.1184132  -0.0044396  -0.0272171
    2  -0.1099165   0.5276641   0.2118754  -0.0494510  -0.2158980  -0.1155275
    3   0.1292694   0.2118754   0.2825740  -0.0531728  -0.0984436  -0.1359636
    4  -0.1184132  -0.0494510  -0.0531728   0.5265840  -0.0143967   0.1330966
    5  -0.0044396  -0.2158980  -0.0984436  -0.0143967   0.4997643   0.2051112
    6  -0.0272171  -0.1155275  -0.1359636   0.1330966   0.2051112   0.3215098
    7   0.0447090   0.0156216   0.0254088  -0.1351856   0.0278081  -0.0059894
    8  -0.0106996  -0.0339159  -0.0249953   0.0790245  -0.1509713  -0.0154365
    9   0.0095758  -0.0160393  -0.0042097   0.0259969  -0.0358798  -0.0847228
   10  -0.0230832  -0.0079703  -0.0129992  -0.0356650   0.0385871   0.0088136
   11  -0.0179987  -0.0098393  -0.0123332   0.0122692   0.0255791   0.0189138
   12  -0.0191850  -0.0083703  -0.0129125  -0.0064793   0.0289037   0.0163292
   13  -0.0428618   0.0171387  -0.0069532   0.0016863   0.0127621   0.0085906
   14   0.0471354   0.0165243   0.0257574   0.0116169  -0.0416731  -0.0201549
   15   0.0112658   0.0144970   0.0156777   0.0075478  -0.0200716  -0.0091604
   16  -0.2819486   0.0291106  -0.0728508  -0.0039268  -0.0594765  -0.0364154
   17  -0.0117903  -0.0972069  -0.0369797  -0.0283924   0.0201107   0.0014597
   18  -0.0973983  -0.0213606  -0.0929728  -0.0183088  -0.0098545  -0.0134996
   19  -0.0280485  -0.0093365  -0.0191699  -0.2341273   0.0040550  -0.0672562
   20  -0.0369044   0.0041460  -0.0162937   0.0031088  -0.0722961  -0.0132894
   21  -0.0353190  -0.0055524  -0.0085527  -0.0699445  -0.0134162  -0.0828921
   22  -0.0021019   0.0047493  -0.0000646  -0.0037337   0.0085585  -0.0010608
   23   0.0106604   0.0031152   0.0029026  -0.0137299  -0.0414270  -0.0378171
   24   0.0036557   0.0004829   0.0072280  -0.0147327  -0.0279268  -0.0121639
   25  -0.0041497  -0.0010504  -0.0021388   0.0011741  -0.0056324  -0.0029399
   26   0.0018680   0.0020710   0.0018529  -0.0218962  -0.0121877  -0.0159700
   27  -0.0004577   0.0009931  -0.0002421  -0.0104165  -0.0095944  -0.0067798
   28  -0.1589277   0.1303367   0.0286887   0.0062570  -0.0064743  -0.0032264
   29   0.1290371  -0.1963972  -0.0512715   0.0190545  -0.0148056  -0.0043021
   30   0.0277852  -0.0505549  -0.0484685   0.0120037  -0.0141638   0.0005742
   31  -0.0005834  -0.0007541  -0.0003356  -0.0025788  -0.0015204  -0.0040968
   32  -0.0006658   0.0002102   0.0003901   0.0001181   0.0023789  -0.0021968
   33  -0.0002904   0.0003446  -0.0007267  -0.0032654  -0.0026923   0.0031399
   34   0.0002772   0.0047788   0.0003163   0.0005446   0.0000058   0.0005382
   35   0.0032652  -0.0015103  -0.0039406  -0.0001261  -0.0011685  -0.0002127
   36  -0.0005771  -0.0033698   0.0048130   0.0004852  -0.0002306  -0.0007956
   37  -0.0053178  -0.0236106  -0.0158341  -0.0030359   0.0025589  -0.0020493
   38   0.0008978   0.0010069   0.0016609   0.0013538   0.0030293  -0.0015542
   39  -0.0009480  -0.0076070  -0.0061523  -0.0027986  -0.0011408   0.0047709
   40  -0.0007332   0.0001867  -0.0001520   0.0021898  -0.0012824  -0.0004010
   41   0.0004088  -0.0000703   0.0002301  -0.0006204   0.0011073   0.0001719
   42  -0.0001128   0.0001604  -0.0000885   0.0006098  -0.0003985   0.0003833
   43   0.0000646  -0.0000267  -0.0000133  -0.0000944   0.0002879   0.0000126
   44   0.0000672  -0.0000213  -0.0001016  -0.0000388   0.0003716  -0.0000718
   45   0.0000379  -0.0000239   0.0000432  -0.0000780   0.0001638  -0.0000600
   46  -0.0001663   0.0001149  -0.0000911   0.0005217  -0.0003522  -0.0001725
   47  -0.0001684   0.0000074  -0.0000931   0.0005043  -0.0001471  -0.0000522
   48  -0.0002107   0.0000018  -0.0000104   0.0004534  -0.0003592   0.0000650
   49   0.0000478   0.0000034  -0.0000048  -0.0000950   0.0000977   0.0000717
   50   0.0000572  -0.0000332   0.0000242  -0.0002706   0.0000824   0.0001410
   51   0.0000453  -0.0001407   0.0000678  -0.0003504   0.0002808   0.0002470
   52   0.0003237   0.0001059   0.0001932  -0.0022364  -0.0006959  -0.0007458
   53  -0.0003958   0.0001394  -0.0000541   0.0004164  -0.0013045  -0.0002466
   54  -0.0000786   0.0001460   0.0000062  -0.0004422  -0.0007112  -0.0011672
   55  -0.0001623   0.0000396  -0.0000029   0.0009289  -0.0002700   0.0004213
   56  -0.0000965  -0.0000800   0.0000263   0.0006984  -0.0001112   0.0000057
   57   0.0003309   0.0000666   0.0003228  -0.0031163   0.0003452  -0.0008747
   58  -0.0000767  -0.0001223  -0.0001594  -0.0007976  -0.0005626   0.0001290
   59  -0.0000398   0.0001225  -0.0000031  -0.0006645  -0.0005489   0.0001292
   60  -0.0002396  -0.0000927  -0.0002836   0.0024676   0.0001701   0.0008552
   61  -0.0000629  -0.0000441  -0.0000101   0.0003343   0.0000180   0.0000270
   62  -0.0001287  -0.0001149  -0.0001979   0.0000974  -0.0001728   0.0002266
   63   0.0001277   0.0000804   0.0000715   0.0000125  -0.0003718  -0.0001705
   64   0.0000729   0.0000196  -0.0000089  -0.0002730   0.0002198   0.0000436
   65   0.0001325   0.0000550   0.0001407  -0.0004575   0.0000973  -0.0000974
   66   0.0000144  -0.0000029  -0.0000604   0.0001061   0.0001063   0.0000268
   67   0.0001269   0.0000466   0.0001031  -0.0000085   0.0000625  -0.0002120
   68  -0.0001540  -0.0000339  -0.0001205   0.0012957   0.0000556   0.0005190
   69   0.0000127  -0.0000118  -0.0001569   0.0000202   0.0000803   0.0001861
   70   0.0000042   0.0000099   0.0000312  -0.0000701  -0.0000580  -0.0000191
   71   0.0000026   0.0000489   0.0001157   0.0004093  -0.0002629  -0.0000564
   72   0.0000551   0.0001563  -0.0000920   0.0002302  -0.0002147   0.0000226
   73   0.0000808   0.0000191   0.0000389  -0.0001288  -0.0000603  -0.0000863
   74   0.0000291   0.0000435  -0.0000174  -0.0000209  -0.0000407   0.0000123
   75   0.0000142  -0.0000194   0.0000813  -0.0000217   0.0000008  -0.0000835
   76   0.0000849   0.0000016  -0.0000350  -0.0003272  -0.0000153  -0.0001149
   77   0.0000535   0.0000093   0.0000332  -0.0002648   0.0000216  -0.0000734
   78  -0.0000473  -0.0000212   0.0000040   0.0001209  -0.0000458   0.0000247
   79  -0.0000233  -0.0000262  -0.0000369   0.0000578  -0.0000031  -0.0000052
   80  -0.0000006   0.0000269  -0.0000360   0.0000323  -0.0000255  -0.0000140
   81   0.0000348  -0.0000573   0.0000524  -0.0002909   0.0000959  -0.0000927
   82  -0.0001276   0.0000256  -0.0000162   0.0004191   0.0002184   0.0002639
   83  -0.0002159  -0.0000695  -0.0001279   0.0003303   0.0004430   0.0003826
   84  -0.0001435  -0.0000529  -0.0000492   0.0002672   0.0002574   0.0002917
            7           8           9          10          11          12
    1   0.0447090  -0.0106996   0.0095758  -0.0230832  -0.0179987  -0.0191850
    2   0.0156216  -0.0339159  -0.0160393  -0.0079703  -0.0098393  -0.0083703
    3   0.0254088  -0.0249953  -0.0042097  -0.0129992  -0.0123332  -0.0129125
    4  -0.1351856   0.0790245   0.0259969  -0.0356650   0.0122692  -0.0064793
    5   0.0278081  -0.1509713  -0.0358798   0.0385871   0.0255791   0.0289037
    6  -0.0059894  -0.0154365  -0.0847228   0.0088136   0.0189138   0.0163292
    7   0.6000081  -0.0347452   0.1471183  -0.2758230   0.0398895  -0.0581640
    8  -0.0347452   0.4428146   0.1648989  -0.0040367  -0.0993304  -0.0279738
    9   0.1471183   0.1648989   0.3011095  -0.0857637  -0.0116915  -0.0953442
   10  -0.2758230  -0.0040367  -0.0857637   0.5938797  -0.1007759   0.1218676
   11   0.0398895  -0.0993304  -0.0116915  -0.1007759   0.5470324   0.2287326
   12  -0.0581640  -0.0279738  -0.0953442   0.1218676   0.2287326   0.2904576
   13  -0.0061983  -0.0278262  -0.0191766  -0.1261268  -0.0570745  -0.0652711
   14  -0.0587589   0.0215501  -0.0083037  -0.0158098  -0.2124556  -0.1085436
   15  -0.0372077   0.0029699  -0.0126073  -0.0406329  -0.1235918  -0.1339558
   16  -0.0416863   0.0240340  -0.0005761   0.0370947   0.0244601   0.0271541
   17   0.0254435  -0.0095125   0.0039192  -0.0059475  -0.0426919  -0.0295437
   18  -0.0003387   0.0032435   0.0017741   0.0093117  -0.0184072  -0.0045370
   19  -0.0564145   0.0011817  -0.0257952   0.0073251   0.0079506   0.0057590
   20   0.0233585  -0.0021002   0.0006647   0.0020188  -0.0037485  -0.0048902
   21  -0.0114114  -0.0086924   0.0012415   0.0020338  -0.0024960   0.0047107
   22  -0.0927838  -0.0373904  -0.0391351  -0.0162973  -0.0404135  -0.0333518
   23  -0.0362124  -0.1753890  -0.0900650  -0.0130778  -0.0050491  -0.0126287
   24  -0.0397311  -0.0922027  -0.1177627  -0.0163660  -0.0227219  -0.0114673
   25  -0.0237806  -0.0148528  -0.0175887   0.0023887   0.0000843   0.0007396
   26   0.0010606   0.0061281   0.0032277  -0.0028926  -0.0027896  -0.0025059
   27  -0.0065534  -0.0005272  -0.0002106  -0.0008537  -0.0015230  -0.0018681
   28   0.0002983  -0.0007162  -0.0026378  -0.0000152  -0.0008181  -0.0001786
   29  -0.0023317   0.0002961  -0.0043064  -0.0009031  -0.0002155   0.0000657
   30  -0.0035071  -0.0038493   0.0023687  -0.0002582   0.0000684  -0.0008753
   31  -0.0142158   0.0245741   0.0079865  -0.1556789   0.1277299   0.0297264
   32  -0.0005517   0.0005316  -0.0025993   0.1286395  -0.1978418  -0.0536858
   33  -0.0075625   0.0069389   0.0058340   0.0307339  -0.0542575  -0.0499831
   34   0.0027152  -0.0002915  -0.0015755  -0.0067206   0.0014215  -0.0012362
   35   0.0009449  -0.0012227  -0.0043201  -0.0231982   0.0021642  -0.0067229
   36  -0.0009040  -0.0047661   0.0032761  -0.0161247   0.0025411  -0.0056509
   37  -0.0011504   0.0003600   0.0001230  -0.0012473   0.0036950  -0.0008744
[...]
   17      H       4.5488533000     1.5597284000     4.8103407700
   18      H       4.8263546700     0.6298051800     3.2790411100
   19      C       3.5814410400     3.3736407300     0.5520782700
   20      H       3.5895573100     2.2893264800     0.3932439000
   21      H       2.5654528600     3.7082380600     0.7934648300
   22      H       4.2931482700     3.6616657300     1.3419657400
   23      H       3.9094515200     3.8716545400    -0.3648969600
   24      C       2.9187602700     4.4213514500     4.4367676500
   25      H       2.9762605500     5.3542001200     5.0043815000
   26      H       3.7356266700     4.4480447400     3.7015256600
   27      H       3.0530024900     3.5986473000     5.1522531800
   28      H       1.9383264000     4.3632241900     3.9503362100
 ----------------------------------------------------------------
 Nuclear Repulsion Energy =   778.0697875661 hartrees
 There are       49 alpha and       49 beta electrons

 Q-Chem warning in module /home/tsivion/software/qchem411/forms1/BasisType.C, line 1209:

 Setting pure/cartesian flag to 2111 for general basis


 Requested basis set is non-standard
 There are 238 shells and 592 basis functions

Total QAlloc Memory Limit   8000 MB
Mega-Array Size      2933 MB
MEM_STATIC part      3000 MB
 A cutoff of  1.0D-13 yielded  24517 shell pairs
 There are    153953 function pairs (    191251 Cartesian)
 Smallest overlap matrix eigenvalue = 5.42E-07
 Linear dependence detected in AO basis
 Number of orthogonalized atomic orbitals = 591
 Maximum deviation from orthogonality = 2.283E-10

  Scale SEOQF with 1.000000e-02/1.000000e-02/1.000000e-02

 Standard Electronic Orientation quadrupole field applied
 Nucleus-field energy     =    -0.0000000007 hartrees

 Q-Chem warning in module /home/tsivion/software/qchem411/forms1/BasisType.C, line 1231:

 You are not using the predefined 5D/6D in this basis set.

 Requested basis set is 3-21G
 There are 69 shells and 144 basis functions
 A cutoff of  1.0D-13 yielded   1844 shell pairs
 There are      8990 function pairs
 Smallest overlap matrix eigenvalue = 1.74E-03
 Guess from superposition of atomic densities
 Warning:  Energy on first SCF cycle will be non-variational
 A restricted Kohn-Sham SCF calculation will be
 performed using Pulay DIIS extrapolation
 Exchange:  B97D      Correlation:  B97-D
 Using SG-1 standard quadrature grid
 SCF converges when DIIS error is below 1.0E-04
 using 10 threads for integral computing 
 
 -------------------------------------------------------
 OpenMP Integral Computing Module                       
 Release: version 1.0, May 2013, Q-Chem Inc. Pittsburgh 
 -------------------------------------------------------
 Integral Job Info:
 Integral job number is                      20
 Integral operator is                         1
 short-range coefficients               -999999
 long-range coefficients                -999999
 Omega coefficients                           0
 if combine SR and LR in K              -999999
 Integral screening is                        1
 Integral computing path is                   2
 max size of driver memory is            800000
 size of driver memory is                 45585
 size of scratch memory is               800000
 max col of scratch BK array                289
 max len of scratch array in speh3           22
 max len of scratch index in speh4            8
 max int batch size is                       50
 min int batch size is                       15
 fixed nKL is                                44
 max L of basis functions is                  1
 order of int derivative is                   0
 number of shells is                         69
 number of basis is                         144
 number of cartesian basis is               144
 number of contracted shell pairs          1844
 number of primitive shell pairs           4087
 maxK2 (contraction) of shell pair            9
 max number of K2 of shell pair               1
 max number of CS2 of shell pair            342
 max number of PS2 of shell pair            684
 mem total for path MDJ                   26906
 -------------------------------------------------------
         cpu   0.19 wall   0.02
 -------------------------------------------------------
 OpenMP BLAS3 based DFT computing Module                
 Release: version 1.0, May 2013, Q-Chem Inc. Pittsburgh 
 -------------------------------------------------------
in dftxc.C, eleTot sum is:98.000237, tauTot is:0.000000
 ---------------------------------------
  Cycle       Energy         DIIS Error
 ---------------------------------------
    1    -700.3885105195      7.38E-02
         cpu   0.45 wall   0.05
in dftxc.C, eleTot sum is:98.000355, tauTot is:0.000000
    2    -698.5640502930      1.26E-02
         cpu   0.46 wall   0.05
in dftxc.C, eleTot sum is:97.999468, tauTot is:0.000000
    3    -697.5635650998      2.11E-02
         cpu   0.47 wall   0.05
in dftxc.C, eleTot sum is:98.000346, tauTot is:0.000000
    4    -698.8503161694      6.55E-03
         cpu   0.45 wall   0.04
in dftxc.C, eleTot sum is:98.000308, tauTot is:0.000000
    5    -698.9485321513      1.42E-03
         cpu   0.44 wall   0.04
in dftxc.C, eleTot sum is:98.000317, tauTot is:0.000000
    6    -698.9505941737      1.55E-03
         cpu   0.42 wall   0.04
in dftxc.C, eleTot sum is:98.000295, tauTot is:0.000000
    7    -698.9581000783      4.49E-04
         cpu   0.42 wall   0.04
in dftxc.C, eleTot sum is:98.000297, tauTot is:0.000000
    8    -698.9586772997      1.96E-04
         cpu   0.39 wall   0.04
in dftxc.C, eleTot sum is:98.000298, tauTot is:0.000000
    9    -698.9587718283      3.58E-05 Convergence criterion met
 ---------------------------------------
 SCF time:  CPU 48.59 s  wall 4.92 s
 SCF   energy in the small basis set = -698.9587718283
 Total energy in the small basis set = -698.9587718283
 Requested basis set is non-standard
 There are 238 shells and 592 basis functions
 A cutoff of  1.0D-13 yielded  24517 shell pairs
 There are    153953 function pairs (    191251 Cartesian)
 Requested basis set is 3-21G
 There are 69 shells and 144 basis functions
 A cutoff of  1.0D-13 yielded   1844 shell pairs
 There are      8990 function pairs
 J construction time:  CPU 29.71 s  wall 22.73 s
 ----------------------------------------------------
  Cycle       Energy    
 ----------------------------------------------------
    1     -76.6025062068     -7.66E+01
 A restricted Kohn-Sham SCF calculation will be
 performed using Pulay DIIS extrapolation
 Exchange:  B97D      Correlation:  B97-D
 Using SG-1 standard quadrature grid
 SCF converges when DIIS error is below 1.0E-08
 using 10 threads for integral computing 
         cpu 126.92 wall  12.71
 -------------------------------------------------------
 OpenMP BLAS3 based DFT computing Module                
 Release: version 1.0, May 2013, Q-Chem Inc. Pittsburgh 
 -------------------------------------------------------
in dftxc.C, eleTot sum is:97.999870, tauTot is:0.000000
 ---------------------------------------
  Cycle       Energy         DIIS Error
 ---------------------------------------
    1    -702.9207222484      3.02E-03
         cpu 125.38 wall  12.58
in dftxc.C, eleTot sum is:97.999938, tauTot is:0.000000
    2    -702.8205993150      2.64E-03
         cpu 121.10 wall  12.11
in dftxc.C, eleTot sum is:97.999890, tauTot is:0.000000
    3    -702.8194023819      2.50E-03
         cpu 121.41 wall  12.15
in dftxc.C, eleTot sum is:97.999952, tauTot is:0.000000
    4    -703.0170662331      5.28E-04
         cpu 118.11 wall  11.84
in dftxc.C, eleTot sum is:97.999957, tauTot is:0.000000
    5    -703.0268829745      3.14E-04
         cpu 114.74 wall  11.50
in dftxc.C, eleTot sum is:97.999958, tauTot is:0.000000
    6    -703.0315483175      7.56E-05
         cpu 112.71 wall  11.32
in dftxc.C, eleTot sum is:97.999956, tauTot is:0.000000
    7    -703.0317831133      2.82E-05
         cpu 107.81 wall  10.80
in dftxc.C, eleTot sum is:97.999957, tauTot is:0.000000
    8    -703.0318152713      7.43E-06
         cpu 103.92 wall  10.42
in dftxc.C, eleTot sum is:97.999957, tauTot is:0.000000
    9    -703.0318174213      2.47E-06
         cpu  99.09 wall   9.91
in dftxc.C, eleTot sum is:97.999957, tauTot is:0.000000
   10    -703.0318176387      8.18E-07
         cpu  95.15 wall   9.54
in dftxc.C, eleTot sum is:97.999957, tauTot is:0.000000
   11    -703.0318176619      4.04E-07
         cpu  89.50 wall   9.00
in dftxc.C, eleTot sum is:97.999957, tauTot is:0.000000
   12    -703.0318176681      1.22E-07
         cpu  85.60 wall   8.56
in dftxc.C, eleTot sum is:97.999957, tauTot is:0.000000
   13    -703.0318176688      1.98E-08
         cpu  75.90 wall   7.59
in dftxc.C, eleTot sum is:97.999957, tauTot is:0.000000
   14    -703.0318176688      4.98E-09 Convergence criterion met
 ---------------------------------------
 SCF time:  CPU 1856.74 s  wall 198.29 s
 Analysis of SCF Wavefunction
 
 --------------------------------------------------------------
                    Orbital Energies (a.u.)
 --------------------------------------------------------------
 
 Alpha MOs
 -- Occupied --
-46.226 -18.698 -18.697  -9.944  -9.941  -9.919  -9.909  -9.909
 -9.856  -9.856  -9.854  -9.854  -2.978  -1.771  -1.769  -1.765
 -0.888  -0.856  -0.717  -0.694  -0.688  -0.667  -0.623  -0.603
 -0.501  -0.483  -0.423  -0.420  -0.419  -0.410  -0.409  -0.400
 -0.399  -0.391  -0.387  -0.382  -0.381  -0.367  -0.339  -0.332
 -0.326  -0.284  -0.282  -0.263  -0.242  -0.224  -0.209  -0.164
 -0.133
 -- Virtual --
 -0.074  -0.032  -0.023  -0.010   0.004   0.011   0.022   0.024
  0.026   0.031   0.033   0.040   0.049   0.050   0.054   0.061
  0.064   0.066   0.073   0.075   0.078   0.090   0.093   0.094
  0.099   0.104   0.106   0.110   0.111   0.121   0.125   0.130
  0.136   0.138   0.138   0.142   0.146   0.151   0.155   0.160
  0.170   0.171   0.173   0.182   0.183   0.192   0.198   0.203
  0.210   0.212   0.220   0.220   0.222   0.225   0.229   0.234
  0.235   0.238   0.241   0.249   0.249   0.251   0.252   0.257
  0.259   0.264   0.268   0.271   0.276   0.278   0.281   0.282
  0.285   0.293   0.295   0.298   0.301   0.301   0.307   0.311
  0.311   0.318   0.323   0.326   0.328   0.335   0.338   0.345
  0.347   0.348   0.349   0.352   0.354   0.358   0.363   0.364
  0.367   0.369   0.375   0.379   0.380   0.389   0.392   0.394
  0.397   0.402   0.404   0.410   0.414   0.418   0.422   0.424
  0.427   0.431   0.436   0.438   0.447   0.448   0.452   0.455
  0.462   0.466   0.471   0.474   0.478   0.480   0.485   0.486
  0.496   0.499   0.502   0.506   0.511   0.513   0.516   0.523
  0.530   0.531   0.543   0.546   0.547   0.550   0.556   0.561
  0.569   0.574   0.579   0.587   0.591   0.597   0.598   0.601
  0.609   0.614   0.618   0.623   0.627   0.634   0.635   0.640
  0.642   0.645   0.651   0.654   0.659   0.660   0.669   0.671
  0.680   0.685   0.685   0.687   0.692   0.693   0.697   0.710
  0.711   0.713   0.714   0.725   0.732   0.735   0.745   0.746
  0.749   0.755   0.757   0.758   0.767   0.772   0.776   0.777
  0.784   0.784   0.785   0.794   0.802   0.806   0.812   0.813
  0.829   0.840   0.843   0.852   0.853   0.858   0.864   0.869
  0.882   0.888   0.893   0.898   0.906   0.915   0.916   0.934
  0.942   0.942   0.957   0.966   0.968   0.973   0.988   0.995
  0.998   1.005   1.014   1.017   1.031   1.044   1.050   1.057
  1.074   1.080   1.098   1.101   1.109   1.116   1.127   1.128
  1.146   1.168   1.174   1.183   1.214   1.216   1.221   1.240
  1.252   1.269   1.289   1.297   1.299   1.340   1.359   1.366
  1.372   1.378   1.391   1.399   1.428   1.430   1.496   1.516
  1.522   1.528   1.542   1.551   1.552   1.557   1.570   1.594
  1.602   1.609   1.621   1.630   1.631   1.640   1.664   1.670
  1.676   1.682   1.698   1.709   1.713   1.728   1.737   1.746
  1.754   1.761   1.765   1.775   1.781   1.792   1.824   1.843
  1.852   1.861   1.866   1.886   1.887   1.907   1.916   1.923
  1.930   1.933   1.948   1.954   1.963   1.989   2.007   2.010
  2.024   2.033   2.036   2.046   2.051   2.053   2.079   2.087
  2.108   2.118   2.132   2.148   2.166   2.182   2.206   2.218
  2.244   2.252   2.271   2.279   2.296   2.318   2.337   2.345
  2.351   2.365   2.371   2.384   2.390   2.406   2.409   2.409
  2.419   2.423   2.432   2.444   2.451   2.458   2.480   2.489
  2.496   2.501   2.510   2.537   2.548   2.568   2.576   2.590
  2.602   2.605   2.623   2.637   2.645   2.648   2.655   2.667
  2.682   2.687   2.700   2.706   2.715   2.732   2.737   2.739
  2.759   2.771   2.780   2.801   2.806   2.822   2.840   2.845
  2.860   2.894   2.903   2.916   2.938   3.000   3.043   3.055
  3.063   3.067   3.069   3.074   3.082   3.089   3.101   3.107
  3.116   3.128   3.132   3.140   3.159   3.174   3.176   3.182
  3.196   3.207   3.229   3.236   3.241   3.252   3.258   3.263
  3.275   3.279   3.281   3.296   3.316   3.326   3.332   3.348
  3.360   3.362   3.370   3.389   3.395   3.401   3.423   3.428
  3.430   3.455   3.466   3.474   3.478   3.483   3.497   3.500
  3.501   3.512   3.522   3.527   3.529   3.548   3.567   3.576
  3.596   3.601   3.607   3.635   3.676   3.705   3.723   3.748
  3.868   3.901   3.918   4.016   4.020   4.078   4.088   4.139
  4.140   4.143   4.149   4.161   4.168   4.173   4.190   4.195
  4.201   4.207   4.226   4.242   4.280   4.285   4.298   4.318
  4.352   4.364   4.459   4.516   4.540   4.586   4.601   4.618
  4.667   4.769   4.777   4.836   4.893   4.904   4.976   5.017
  5.023   5.131   5.132   5.139   5.190   5.220   5.254   5.264
  5.404   5.417   5.440   5.569   5.706   5.722   5.848   5.884
  5.969   6.218   6.302   6.340   6.441   6.443   6.464   6.473
  6.495   6.522   6.558   6.699   6.731   6.776   6.805   6.932
  7.110   7.206   7.315  22.220  22.289  22.330  22.458  22.685
 22.702  22.860  22.929  23.260  44.091  44.273
 --------------------------------------------------------------
 
          Ground-State Mulliken Net Atomic Charges

     Atom                 Charge (a.u.)
  ----------------------------------------
      1 C                    -0.602476
      2 C                     0.953514
      3 C                     0.936257
      4 C                    -0.597644
      5 C                    -0.558450
      6 C                    -0.564126
      7 O                    -1.034451
      8 O                    -0.976834
      9 Mg                    0.840763
     10 H                     0.314272
     11 H                     0.311722
     12 H                     0.320898
     13 H                     0.319727
     14 C                    -1.193770
     15 H                     0.386715
     16 H                     0.254199
     17 H                     0.313325
     18 H                     0.419225
     19 C                    -1.356197
     20 H                     0.359057
     21 H                     0.360858
     22 H                     0.338409
     23 H                     0.260251
     24 C                    -1.181845
     25 H                     0.252184
     26 H                     0.381752
     27 H                     0.314476
     28 H                     0.428190
  ----------------------------------------
  Sum of atomic charges =    -0.000000

 -----------------------------------------------------------------
                    Cartesian Multipole Moments
 -----------------------------------------------------------------
    Charge (ESU x 10^10)
                 0.0000
    Dipole Moment (Debye)
         X       7.5682      Y       5.1559      Z       4.0734
       Tot      10.0227
    Quadrupole Moments (Debye-Ang)
        XX     -45.7273     XY      26.3770     YY     -61.7040
        XZ      29.8932     YZ      19.6010     ZZ     -55.4993
    Octopole Moments (Debye-Ang^2)
       XXX    -273.4140    XXY     -22.8076    XYY     -59.5503
       YYY    -296.2227    XXZ     -37.4156    XYZ      83.0627
       YYZ     -99.0064    XZZ     -12.1981    YZZ     -37.5814
       ZZZ    -362.0742
    Hexadecapole Moments (Debye-Ang^3)
      XXXX   -2648.8442   XXXY    -630.9912   XXYY    -681.0656
      XYYY    -701.5197   YYYY   -2075.5207   XXXZ    -676.6211
      XXYZ     -47.2020   XYYZ    -162.9527   YYYZ    -756.1037
      XXZZ    -546.7236   XYZZ       7.5581   YYZZ    -598.1081
      XZZZ    -703.3821   YZZZ    -662.5542   ZZZZ   -2415.1099
 -----------------------------------------------------------------
Archival summary:
1\1\compute-0-7.local\SP\ProcedureUnspecified\BasisUnspecified\g12916\tsivion\SunJul2009:38:522014SunJul2009:38:522014\0\\#,ProcedureUnspecified,BasisUnspecified,\\0,1\Mg\O,1,1.87675\C,2,1.36458,1,101.67\C,3,1.40014,2,121.206,1,174.734,0\H,4,1.08904,3,117.874,2,0.32469,0\C,4,1.40025,3,121.137,2,-179.809,0\H,6,1.08894,4,119.738,3,-179.891,0\C,6,1.39655,4,119.941,3,0.0531362,0\H,8,1.08895,6,120.317,4,-179.975,0\C,8,1.40055,6,119.988,4,-0.0752062,0\H,10,1.08898,8,121.002,6,-179.689,0\C,10,1.40029,8,121.156,6,0.0200286,0\O,12,1.3645,10,121.341,8,179.994,0\H,13,2.44624,12,171.109,10,146.953,0\C,14,1.09675,13,130.798,12,34.6476,0\H,15,1.09344,14,108.598,13,-176.446,0\H,15,1.09903,14,111.306,13,-59.0856,0\H,15,1.09955,14,111.813,13,66.0202,0\H,2,2.44842,1,72.9318,3,176.024,0\C,19,1.09601,2,129.312,1,12.1558,0\H,20,1.09348,19,108.824,2,173.325,0\H,20,1.09854,19,111.018,2,55.6689,0\H,20,1.09935,19,111.663,2,-69.1521,0\H,23,2.54887,20,140.729,19,28.4293,0\C,24,1.10155,23,127.096,20,-20.2108,0\H,25,1.09382,24,106.759,23,-133.659,0\H,25,1.09592,24,110.968,23,107.6,0\H,25,1.09657,24,111.161,23,-15.053,0\\\@

 Total job time:  240.25s(wall), 1955.43s(cpu) 
 Sun Jul 20 09:38:52 2014

======= MOLDEN-FORMATTED INPUT FILE FOLLOWS =======
[Molden Format]
[Atoms] (Angs)
  C      1    6      0.97127315     -0.65191417      0.79631230
  C      2    6      1.42362261      0.39967448      1.60275469
  C      3    6      0.51763689      1.47884481      1.91165164
  C      4    6     -0.78390405      1.43925180      1.39704999
  C      5    6     -1.21279816      0.37564324      0.59363016
  C      6    6     -0.33559175     -0.66860442      0.29294688
  O      7    8      2.69605124      0.41982235      2.09507181
  O      8    8      0.93827649      2.51656152      2.69157514
 Mg      9   12      2.75460035      2.10510374      2.92363352
  H     10    1      1.66740736     -1.45995597      0.57641748
  H     11    1     -1.45402040      2.26162388      1.64333491
  H     12    1     -2.23071997      0.36712331      0.20690701
  H     13    1     -0.66281212     -1.49897748     -0.33093122
  C     14    6      5.20437420      1.41967136      3.93940103
  H     15    1      5.35714745      2.36526713      3.39947981
  H     16    1      6.18155135      1.11480752      4.32384299
  H     17    1      4.54885330      1.55972840      4.81034077
  H     18    1      4.82635467      0.62980518      3.27904111
  C     19    6      3.58144104      3.37364073      0.55207827
  H     20    1      3.58955731      2.28932648      0.39324390
  H     21    1      2.56545286      3.70823806      0.79346483
  H     22    1      4.29314827      3.66166573      1.34196574
  H     23    1      3.90945152      3.87165454     -0.36489696
  C     24    6      2.91876027      4.42135145      4.43676765
  H     25    1      2.97626055      5.35420012      5.00438150
  H     26    1      3.73562667      4.44804474      3.70152566
  H     27    1      3.05300249      3.59864730      5.15225318
  H     28    1      1.93832640      4.36322419      3.95033621

======= END OF MOLDEN-FORMATTED INPUT FILE =======


        *************************************************************
        *                                                           *
        *  Thank you very much for using Q-Chem.  Have a nice day.  *
        *                                                           *
        *************************************************************


