                  Welcome to Q-Chem
     A Quantum Leap Into The Future Of Chemistry


 Q-Chem 4.2, Q-Chem, Inc., Pleasanton, CA (2014).

 Y. Shao,  Z. Gan,  E. Epifanovsky,  A. T. B. Gilbert,  M. Wormit,  
 J. Kussmann,  A. W. Lange,  A. Behn,  J. Deng,  X. Feng,  D. Ghosh,  
 M. Goldey,  P. R. Horn,  L. D. Jacobson,  I. Kaliman,  R. Z. Khaliullin,  
 T. Kus,  A. Landau,  J. Liu,  E. I. Proynov,  Y. M. Rhee,  R. M. Richard,  
 M. A. Rohrdanz,  R. P. Steele,  E. J. Sundstrom,  H. L. Woodcock III,  
 P. M. Zimmerman,  D. Zuev,  B. Albrecht,  E. Alguire,  B. Austin,  
 G. J. O. Beran,  Y. A. Bernard,  E. Berquist,  K. Brandhorst,  
 K. B. Bravaya,  S. T. Brown,  D. Casanova,  C.-M. Chang,  Y. Chen,  
 S. H. Chien,  K. D. Closser,  D. L. Crittenden,  M. Diedenhofen,  
 R. A. DiStasio Jr.,  H. Do,  A. D. Dutoi,  R. G. Edgar,  S. Fatehi,  
 L. Fusti-Molnar,  A. Ghysels,  A. Golubeva-Zadorozhnaya,  J. Gomes,  
 M. W. D. Hanson-Heine,  P. H. P. Harbach,  A. W. Hauser,  E. G. Hohenstein,  
 Z. C. Holden,  T.-C. Jagau,  H. Ji,  B. Kaduk,  K. Khistyaev,  Jaehoon Kim,  
 Jihan Kim,  R. A. King,  P. Klunzinger,  D. Kosenkov,  T. Kowalczyk,  
 C. M. Krauter,  K. U. Lao,  A. Laurent,  K. V. Lawler,  S. V. Levchenko,  
 C. Y. Lin,  F. Liu,  E. Livshits,  R. C. Lochan,  A. Luenser,  P. Manohar,  
 S. F. Manzer,  S.-P. Mao,  N. Mardirossian,  A. V. Marenich,  S. A. Maurer,  
 N. J. Mayhall,  C. M. Oana,  R. Olivares-Amaya,  D. P. O'Neill,  
 J. A. Parkhill,  T. M. Perrine,  R. Peverati,  P. A. Pieniazek,  A. Prociuk,  
 D. R. Rehn,  E. Rosta,  N. J. Russ,  N. Sergueev,  S. M. Sharada,  
 S. Sharma,  D. W. Small,  A. Sodt,  T. Stein,  D. Stuck,  Y.-C. Su,  
 A. J. W. Thom,  T. Tsuchimochi,  L. Vogt,  O. Vydrov,  T. Wang,  
 M. A. Watson,  J. Wenzel,  A. White,  C. F. Williams,  V. Vanovschi,  
 S. Yeganeh,  S. R. Yost,  Z.-Q. You,  I. Y. Zhang,  X. Zhang,  Y. Zhao,  
 B. R. Brooks,  G. K. L. Chan,  D. M. Chipman,  C. J. Cramer,  
 W. A. Goddard III,  M. S. Gordon,  W. J. Hehre,  A. Klamt,  
 H. F. Schaefer III,  M. W. Schmidt,  C. D. Sherrill,  D. G. Truhlar,  
 A. Warshel,  X. Xu,  A. Aspuru-Guzik,  R. Baer,  A. T. Bell,  N. A. Besley,  
 J.-D. Chai,  A. Dreuw,  B. D. Dunietz,  T. R. Furlani,  S. R. Gwaltney,  
 C.-P. Hsu,  Y. Jung,  J. Kong,  D. S. Lambrecht,  W. Liang,  C. Ochsenfeld,  
 V. A. Rassolov,  L. V. Slipchenko,  J. E. Subotnik,  T. Van Voorhis,  
 J. M. Herbert,  A. I. Krylov,  P. M. W. Gill,  M. Head-Gordon

 Contributors to earlier versions of Q-Chem not listed above: 
 R. D. Adamson,  J. Baker,  E. F. C. Byrd,  A. K. Chakraborty,  C.-L. Cheng,  
 H. Dachsel,  R. J. Doerksen,  G. Hawkins,  A. Heyden,  S. Hirata,  
 G. Kedziora,  F. J. Keil,  C. Kelley,  P. P. Korambath,  W. Kurlancheek,  
 A. M. Lee,  M. S. Lee,  D. Liotard,  I. Lotan,  P. E. Maslen,  N. Nair,  
 D. Neuhauser,  R. Olson,  B. Peters,  J. Ritchie,  N. E. Schultz,  
 N. Shenvi,  A. C. Simmonett,  K. S. Thanthiriwatte,  Q. Wu,  W. Zhang

 Q-Chem 4.2.0 for Intel X86 EM64T Linux

 Parts of Q-Chem use Armadillo 4.100.2 (Dirt Cruiser).
 http://arma.sourceforge.net/

 Q-Chem begins on Thu Jun  5 16:54:48 2014  

Host: compute-0-14.local
0

     Scratch files written to /scratch/tsivion/pyrrole-H2-freq.in20140605155503//
 Jun314 |home|tsivion|software|qchem411|libmdc|qstr_info.C -1
Finally everything over in PARseQInput

--------------------------------------------------------------
User input:
--------------------------------------------------------------
$molecule
0 1
  C      0.85635996      0.57076860     -0.02943521
  C     -0.37746376      1.19271119      0.00442730
  C     -1.33015972      0.22596708      0.43742961
  C     -0.65208780     -0.95754690      0.65553416
  H     -2.39391582      0.37365094      0.57550365
  H     -0.57622906      2.22351736     -0.25923506
  N      0.67427980     -0.73532647      0.36680156
  H      1.83446609      0.93884933     -0.30655991
  H     -0.99950107     -1.92510948      0.99248025
  H      1.40400756     -1.42560324      0.44291520
  H     -0.18311300      0.36880981      3.01975525
  H      0.16588682      0.51888179      3.66345319
$end

$rem
	jobtype 				freq
	exchange 				b97-d
	dft_d					empirical_grimme3
	basis 					gen ! def2-tzvpd
	max_scf_cycles 			200
	symmetry 				false
	sym_ignore 				true
	molden_format			true
	nbo						false
	scf_convergence 		8
	thresh					13
	geom_opt_tol_gradient 	10
	geom_opt_tol_energy     10
	GEOM_OPT_MAX_CYCLES		500
	thresh					13
	mem_static				3000
	mem_total				8000
	DFT_D3_RS6 				892
	DFT_D3_S8  				909
	ideriv					1
	fdiff_stepsize 			100
$end

$nbo
e2pert
$end

$basis ! def2-tzvpd
****
H     0 
S   3   1.00
     34.061341000            0.60251978000E-02      
      5.1235746000           0.45021094000E-01      
      1.1646626000           0.20189726000    
S   1   1.00
      0.32723041000          1.0000000        
S   1   1.00
      0.10307241000          1.0000000        
P   1   1.00
      0.80000000000          1.0000000        
P   1   1.00
      0.95774129632E-01            1.0000000        
****
C     0 
S   6   1.00
  13575.3496820              0.22245814352E-03      
   2035.2333680              0.17232738252E-02      
    463.22562359             0.89255715314E-02      
    131.20019598             0.35727984502E-01      
     42.853015891            0.11076259931    
     15.584185766            0.24295627626    
S   2   1.00
      6.2067138508           0.41440263448    
      2.5764896527           0.23744968655    
S   1   1.00
      0.57696339419          1.0000000        
S   1   1.00
      0.22972831358          1.0000000        
S   1   1.00
      0.95164440028E-01            1.0000000        
S   1   1.00
      0.48475401370E-01            1.0000000        
P   4   1.00
     34.697232244            0.53333657805E-02      
      7.9582622826           0.35864109092E-01      
      2.3780826883           0.14215873329    
      0.81433208183          0.34270471845    
P   1   1.00
      0.28887547253          1.0000000        
P   1   1.00
      0.10056823671          1.0000000        
D   1   1.00
      1.0970000000           1.0000000        
D   1   1.00
      0.31800000000          1.0000000        
D   1   1.00
      0.90985336424E-01            1.0000000        
F   1   1.00
      0.76100000000          1.0000000        
****
N     0 
S   6   1.00
  19730.8006470              0.21887984991E-03      
   2957.8958745              0.16960708803E-02      
    673.22133595             0.87954603538E-02      
    190.68249494             0.35359382605E-01      
     62.295441898            0.11095789217    
     22.654161182            0.24982972552    
S   2   1.00
      8.9791477428           0.40623896148    
      3.6863002370           0.24338217176    
S   1   1.00
      0.84660076805          1.0000000        
S   1   1.00
      0.33647133771          1.0000000        
S   1   1.00
      0.13647653675          1.0000000        
S   1   1.00
      0.68441605847E-01            1.0000000        
P   4   1.00
     49.200380510            0.55552416751E-02      
     11.346790537            0.38052379723E-01      
      3.4273972411           0.14953671029    
      1.1785525134           0.34949305230    
P   1   1.00
      0.41642204972          1.0000000        
P   1   1.00
      0.14260826011          1.0000000        
D   1   1.00
      1.6540000000           1.0000000        
D   1   1.00
      0.46900000000          1.0000000        
D   1   1.00
      0.12829642058          1.0000000        
F   1   1.00
      1.0930000000           1.0000000        
****
O     0 
S   6   1.00
  27032.3826310              0.21726302465E-03      
   4052.3871392              0.16838662199E-02      
    922.32722710             0.87395616265E-02      
    261.24070989             0.35239968808E-01      
     85.354641351            0.11153519115    
     31.035035245            0.25588953961    
S   2   1.00
     12.260860728            0.39768730901    
      4.9987076005           0.24627849430    
S   1   1.00
      1.1703108158           1.0000000        
S   1   1.00
      0.46474740994          1.0000000        
S   1   1.00
      0.18504536357          1.0000000        
S   1   1.00
      0.70288026270E-01            1.0000000        
P   4   1.00
     63.274954801            0.60685103418E-02      
     14.627049379            0.41912575824E-01      
      4.4501223456           0.16153841088    
      1.5275799647           0.35706951311    
P   1   1.00
      0.52935117943          1.0000000        
P   1   1.00
      0.17478421270          1.0000000        
P   1   1.00
      0.51112745706E-01            1.0000000        
D   1   1.00
      2.3140000000           1.0000000        
D   1   1.00
      0.64500000000          1.0000000        
D   1   1.00
      0.14696477366          1.0000000        
F   1   1.00
      1.4280000000           1.0000000        
****
$end


--------------------------------------------------------------
 ----------------------------------------------------------------
             Standard Nuclear Orientation (Angstroms)
    I     Atom           X                Y                Z
 ----------------------------------------------------------------
    1      C       0.8563599600     0.5707686000    -0.0294352100
    2      C      -0.3774637600     1.1927111900     0.0044273000
    3      C      -1.3301597200     0.2259670800     0.4374296100
    4      C      -0.6520878000    -0.9575469000     0.6555341600
    5      H      -2.3939158200     0.3736509400     0.5755036500
    6      H      -0.5762290600     2.2235173600    -0.2592350600
    7      N       0.6742798000    -0.7353264700     0.3668015600
    8      H       1.8344660900     0.9388493300    -0.3065599100
    9      H      -0.9995010700    -1.9251094800     0.9924802500
   10      H       1.4040075600    -1.4256032400     0.4429152000
   11      H      -0.1831130000     0.3688098100     3.0197552500
   12      H       0.1658868200     0.5188817900     3.6634531900
 ----------------------------------------------------------------
 Nuclear Repulsion Energy =   172.7019091638 hartrees
 There are       19 alpha and       19 beta electrons

 Q-Chem warning in module /home/tsivion/software/qchem411/forms1/BasisType.C, line 1209:

 Setting pure/cartesian flag to 2111 for general basis


 Requested basis set is non-standard
 There are 100 shells and 248 basis functions

Total QAlloc Memory Limit   8000 MB
Mega-Array Size      2933 MB
MEM_STATIC part      3000 MB

                       Distance Matrix (Angstroms)
             C (  1)   C (  2)   C (  3)   C (  4)   H (  5)   H (  6)
   C (  2)  1.382129
   C (  3)  2.262238  1.424681
   C (  4)  2.253962  2.263398  1.381324
   H (  5)  3.311963  2.250126  1.082798  2.193731
   H (  6)  2.199249  1.082399  2.245876  3.310850  2.724478
   N (  7)  1.376968  2.225940  2.224152  1.375500  3.269130  3.272683
   H (  8)  1.081191  2.248064  3.328149  3.271833  4.356225  2.732044
   H (  9)  3.273826  3.329262  2.246007  1.081853  2.720765  4.353970
   H ( 10)  2.123331  3.197105  3.194274  2.119389  4.204654  4.210752
   H ( 11)  3.227825  3.131899  2.829227  2.751127  3.295761  3.787645
   H ( 12)  3.757242  3.760019  3.568078  3.449130  4.013616  4.340968
             N (  7)   H (  8)   H (  9)   H ( 10)   H ( 11)
   H (  8)  2.145300
   H (  9)  2.146765  4.233336
   H ( 10)  1.007362  2.517468  2.515628
   H ( 11)  2.998734  3.931913  3.168343  3.518377
   H ( 12)  3.563624  4.326839  3.803330  3.960534  0.747442
 
 A cutoff of  1.0D-13 yielded   4960 shell pairs
 There are     31080 function pairs (     39179 Cartesian)
 Smallest overlap matrix eigenvalue = 1.28E-06
 Guess MOs from core Hamiltonian diagonalization
 A restricted Kohn-Sham SCF calculation will be
 performed using Pulay DIIS extrapolation
 Exchange:  B97D      Correlation:  B97-D
 Using SG-1 standard quadrature grid
 SCF converges when DIIS error is below 1.0E-08
 using 8 threads for integral computing 
 
 -------------------------------------------------------
 OpenMP Integral Computing Module                       
 Release: version 1.0, May 2013, Q-Chem Inc. Pittsburgh 
 -------------------------------------------------------
 Integral Job Info:
 Integral job number is                      20
 Integral operator is                         1
 short-range coefficients               -999999
 long-range coefficients                -999999
 Omega coefficients                           0
 if combine SR and LR in K              -999999
 Integral screening is                        1
 Integral computing path is                   2
 max size of driver memory is            800000
 size of driver memory is                776850
 size of scratch memory is              1235520
 max col of scratch BK array              10000
 max len of scratch array in speh3          662
 max len of scratch index in speh4           32
 max int batch size is                       50
 min int batch size is                       15
 fixed nKL is                                15
 max L of basis functions is                  3
 order of int derivative is                   0
 number of shells is                        100
 number of basis is                         278
 number of cartesian basis is               278
 number of contracted shell pairs          4960
 number of primitive shell pairs          10601
 maxK2 (contraction) of shell pair           36
 max number of K2 of shell pair               1
 max number of CS2 of shell pair            836
 max number of PS2 of shell pair           1146
 mem total for path MDJ                   92176
 -------------------------------------------------------
         cpu  10.55 wall   1.32
 -------------------------------------------------------
 OpenMP BLAS3 based DFT computing Module                
 Release: version 1.0, May 2013, Q-Chem Inc. Pittsburgh 
 -------------------------------------------------------
in dftxc.C, eleTot sum is:38.000005, tauTot is:0.000000
 ---------------------------------------
  Cycle       Energy         DIIS Error
 ---------------------------------------
    1    -161.9185433638      8.16E-02
         cpu  10.81 wall   1.35
in dftxc.C, eleTot sum is:37.996379, tauTot is:0.000000
    2    -148.4767116270      4.36E-02
         cpu  10.78 wall   1.36
in dftxc.C, eleTot sum is:37.999958, tauTot is:0.000000
    3    -188.1307642035      4.83E-02
         cpu  10.54 wall   1.32
in dftxc.C, eleTot sum is:38.000025, tauTot is:0.000000
    4    -203.1273594117      2.81E-02
         cpu  10.36 wall   1.30
in dftxc.C, eleTot sum is:38.000089, tauTot is:0.000000
    5    -203.0837938982      2.86E-02
         cpu  10.28 wall   1.29
in dftxc.C, eleTot sum is:38.000101, tauTot is:0.000000
    6    -210.9697667686      5.91E-03
         cpu  10.26 wall   1.29
in dftxc.C, eleTot sum is:38.000160, tauTot is:0.000000
    7    -210.9519844238      6.81E-03
         cpu  10.34 wall   1.29
in dftxc.C, eleTot sum is:38.000091, tauTot is:0.000000
    8    -211.2621916748      1.47E-03
         cpu  10.38 wall   1.30
in dftxc.C, eleTot sum is:38.000113, tauTot is:0.000000
    9    -211.2671351557      1.33E-03
         cpu  10.23 wall   1.28
in dftxc.C, eleTot sum is:38.000105, tauTot is:0.000000
   10    -211.2801324140      5.07E-04
         cpu  10.21 wall   1.28
in dftxc.C, eleTot sum is:38.000108, tauTot is:0.000000
   11    -211.2819925284      9.97E-05
         cpu   9.62 wall   1.20
in dftxc.C, eleTot sum is:38.000108, tauTot is:0.000000
   12    -211.2820703114      3.19E-05
         cpu  10.15 wall   1.27
in dftxc.C, eleTot sum is:38.000108, tauTot is:0.000000
   13    -211.2820761970      1.73E-05
         cpu   9.67 wall   1.21
in dftxc.C, eleTot sum is:38.000108, tauTot is:0.000000
   14    -211.2820784436      3.33E-06
         cpu   9.80 wall   1.23
in dftxc.C, eleTot sum is:38.000108, tauTot is:0.000000
   15    -211.2820785414      7.28E-07
         cpu  10.94 wall   1.37
in dftxc.C, eleTot sum is:38.000108, tauTot is:0.000000
   16    -211.2820785455      1.34E-07
         cpu   9.54 wall   1.19
in dftxc.C, eleTot sum is:38.000108, tauTot is:0.000000
   17    -211.2820785456      3.04E-08
         cpu   8.68 wall   1.09
in dftxc.C, eleTot sum is:38.000108, tauTot is:0.000000
   18    -211.2820785456      5.59E-09 Convergence criterion met
 ---------------------------------------
 SCF time:  CPU 299.43 s  wall 50.66 s
 SCF   energy in the final basis set = -211.2820785456
 Total energy in the final basis set = -211.2820785456
 Analysis of SCF Wavefunction
 
 --------------------------------------------------------------
                    Orbital Energies (a.u.)
 --------------------------------------------------------------
 
 Alpha MOs
 -- Occupied --
-14.040  -9.920  -9.919  -9.885  -9.885  -0.896  -0.703  -0.654
 -0.535  -0.510  -0.491  -0.384  -0.379  -0.375  -0.351  -0.344
 -0.333  -0.216  -0.188
 -- Virtual --
 -0.008  -0.003   0.024   0.025   0.035   0.045   0.048   0.055
  0.072   0.091   0.105   0.110   0.122   0.126   0.136   0.138
  0.158   0.159   0.185   0.193   0.194   0.203   0.210   0.212
  0.218   0.222   0.232   0.237   0.254   0.268   0.275   0.277
  0.282   0.288   0.293   0.299   0.305   0.311   0.319   0.331
  0.337   0.345   0.347   0.363   0.382   0.385   0.391   0.410
  0.418   0.420   0.422   0.432   0.439   0.446   0.457   0.463
  0.469   0.479   0.488   0.496   0.524   0.535   0.544   0.564
  0.576   0.582   0.597   0.604   0.615   0.626   0.645   0.646
  0.656   0.669   0.670   0.681   0.690   0.701   0.707   0.713
  0.726   0.737   0.754   0.766   0.788   0.788   0.815   0.854
  0.898   0.930   0.941   0.952   0.956   0.973   1.001   1.064
  1.073   1.114   1.130   1.161   1.193   1.198   1.261   1.278
  1.282   1.350   1.360   1.376   1.391   1.399   1.425   1.445
  1.476   1.554   1.597   1.620   1.628   1.647   1.693   1.714
  1.730   1.732   1.764   1.776   1.780   1.849   1.861   1.902
  1.909   1.937   1.984   2.012   2.026   2.041   2.059   2.103
  2.151   2.158   2.208   2.226   2.229   2.239   2.336   2.349
  2.384   2.434   2.443   2.498   2.531   2.541   2.575   2.608
  2.618   2.625   2.655   2.672   2.701   2.715   2.774   2.788
  2.804   2.872   2.876   2.898   2.918   2.983   3.006   3.023
  3.051   3.068   3.083   3.110   3.133   3.149   3.171   3.196
  3.218   3.238   3.268   3.296   3.298   3.353   3.399   3.431
  3.442   3.471   3.472   3.488   3.526   3.560   3.566   3.617
  3.778   3.889   4.009   4.019   4.024   4.089   4.139   4.141
  4.228   4.285   4.295   4.296   4.416   4.533   4.541   4.687
  4.699   4.707   4.812   4.836   4.860   4.866   4.937   5.068
  5.127   5.239   5.405   5.410   5.516   5.583   5.717   5.932
 22.313  22.578  22.657  22.829  32.295
 --------------------------------------------------------------
 
          Ground-State Mulliken Net Atomic Charges

     Atom                 Charge (a.u.)
  ----------------------------------------
      1 C                    -0.483933
      2 C                    -0.148146
      3 C                    -0.129803
      4 C                    -0.505238
      5 H                     0.263036
      6 H                     0.287681
      7 N                     0.126327
      8 H                     0.247847
      9 H                     0.213209
     10 H                     0.126791
     11 H                    -0.268585
     12 H                     0.270814
  ----------------------------------------
  Sum of atomic charges =     0.000000

 -----------------------------------------------------------------
                    Cartesian Multipole Moments
 -----------------------------------------------------------------
    Charge (ESU x 10^10)
                 0.0000
    Dipole Moment (Debye)
         X       1.2997      Y      -1.2806      Z      -0.1043
       Tot       1.8276
    Quadrupole Moments (Debye-Ang)
        XX     -28.0551     XY      -1.6550     YY     -28.3564
        XZ      -0.3803     YZ      -2.2410     ZZ     -35.8139
    Octopole Moments (Debye-Ang^2)
       XXX      18.2684    XXY      -4.6700    XYY       6.9356
       YYY     -12.2809    XXZ     -13.7619    XYZ      -0.2567
       YYZ     -14.1871    XZZ       6.9252    YZZ      -4.5130
       ZZZ     -49.9527
    Hexadecapole Moments (Debye-Ang^3)
      XXXX    -176.6154   XXXY      -2.9960   XXYY     -56.5696
      XYYY      -3.0439   YYYY    -170.1647   XXXZ      12.6508
      XXYZ      -0.3782   XYYZ       5.2548   YYYZ      -0.5037
      XXZZ     -70.0696   XYZZ       2.3808   YYZZ     -67.5322
      XZZZ      25.4336   YZZZ      13.4466   ZZZZ    -210.6034
 -----------------------------------------------------------------
 Calculating analytic gradient of the SCF energy
         cpu  19.06 wall   2.39
in dftxc.C, eleTot sum is:38.000108, tauTot is:0.000000
 Gradient of SCF Energy
            1           2           3           4           5           6
    1  -0.0000357  -0.0000644  -0.0000075   0.0000186  -0.0000138  -0.0000817
    2  -0.0000189  -0.0000561  -0.0000260  -0.0000259  -0.0000651  -0.0000670
    3  -0.0000614  -0.0000383   0.0000319   0.0000784   0.0000676  -0.0000998
            7           8           9          10          11          12
    1   0.0000010  -0.0000577   0.0000529   0.0000206   0.0000727   0.0000951
    2  -0.0000041  -0.0000176  -0.0000081   0.0000138   0.0001163   0.0001586
    3   0.0000176  -0.0001137   0.0001377   0.0000239  -0.0000114  -0.0000324
 Max gradient component =       1.586E-04
 RMS gradient           =       6.397E-05
 Gradient time:  CPU 32.83 s  wall 8.90 s
 ######################################################
 ######################################################
 # Starting finite difference calculation for IDERIV  #
 Finite diff step size: 1.89e-03 a.u.
 ----------------------------------------------------------------
             Standard Nuclear Orientation (Angstroms)
    I     Atom           X                Y                Z
 ----------------------------------------------------------------
    1      C       0.8573599600     0.5707686000    -0.0294352100
    2      C      -0.3774637600     1.1927111900     0.0044273000
    3      C      -1.3301597200     0.2259670800     0.4374296100
    4      C      -0.6520878000    -0.9575469000     0.6555341600
    5      H      -2.3939158200     0.3736509400     0.5755036500
    6      H      -0.5762290600     2.2235173600    -0.2592350600
    7      N       0.6742798000    -0.7353264700     0.3668015600
    8      H       1.8344660900     0.9388493300    -0.3065599100
    9      H      -0.9995010700    -1.9251094800     0.9924802500
   10      H       1.4040075600    -1.4256032400     0.4429152000
   11      H      -0.1831130000     0.3688098100     3.0197552500
   12      H       0.1658868200     0.5188817900     3.6634531900
 ----------------------------------------------------------------
 Nuclear Repulsion Energy =   172.6869725793 hartrees
 There are       19 alpha and       19 beta electrons

                       Distance Matrix (Angstroms)
             C (  1)   C (  2)   C (  3)   C (  4)   H (  5)   H (  6)
   C (  2)  1.383022
   C (  3)  2.263204  1.424681
   C (  4)  2.254632  2.263398  1.381324
   H (  5)  3.312944  2.250126  1.082798  2.193731
   H (  6)  2.199901  1.082399  2.245876  3.310850  2.724478
   N (  7)  1.377101  2.225940  2.224152  1.375500  3.269130  3.272683
   H (  8)  1.080286  2.248064  3.328149  3.271833  4.356225  2.732044
   H (  9)  3.274393  3.329262  2.246007  1.081853  2.720765  4.353970
   H ( 10)  2.123073  3.197105  3.194274  2.119389  4.204654  4.210752
   H ( 11)  3.228147  3.131899  2.829227  2.751127  3.295761  3.787645
   H ( 12)  3.757426  3.760019  3.568078  3.449130  4.013616  4.340968
             N (  7)   H (  8)   H (  9)   H ( 10)   H ( 11)
   H (  8)  2.145300
   H (  9)  2.146765  4.233336
   H ( 10)  1.007362  2.517468  2.515628
   H ( 11)  2.998734  3.931913  3.168343  3.518377
   H ( 12)  3.563624  4.326839  3.803330  3.960534  0.747442
 
 Requested basis set is non-standard
 There are 100 shells and 248 basis functions
 A cutoff of  1.0D-13 yielded   4960 shell pairs
 There are     31080 function pairs (     39179 Cartesian)
 Smallest overlap matrix eigenvalue = 1.29E-06
 Guess MOs from SCF MO coefficient file
Reading MOs from coefficient file
Reading MOs from coefficient file
 A restricted Kohn-Sham SCF calculation will be
 performed using Pulay DIIS extrapolation
 Exchange:  B97D      Correlation:  B97-D
 Using SG-1 standard quadrature grid
 SCF converges when DIIS error is below 1.0E-08
 using 8 threads for integral computing 
         cpu  10.72 wall   1.34
 -------------------------------------------------------
 OpenMP BLAS3 based DFT computing Module                
 Release: version 1.0, May 2013, Q-Chem Inc. Pittsburgh 
 -------------------------------------------------------
in dftxc.C, eleTot sum is:38.000395, tauTot is:0.000000
 ---------------------------------------
  Cycle       Energy         DIIS Error
 ---------------------------------------
    1    -211.2823359238      2.67E-05
         cpu  10.60 wall   1.33
in dftxc.C, eleTot sum is:38.000106, tauTot is:0.000000
    2    -211.2820762745      6.85E-06
         cpu  10.11 wall   1.26
in dftxc.C, eleTot sum is:38.000106, tauTot is:0.000000
    3    -211.2820749988      1.42E-05
         cpu   9.82 wall   1.23
in dftxc.C, eleTot sum is:38.000106, tauTot is:0.000000
    4    -211.2820766666      1.94E-06
         cpu   9.70 wall   1.21
in dftxc.C, eleTot sum is:38.000106, tauTot is:0.000000
    5    -211.2820766892      8.52E-07
         cpu   9.40 wall   1.17
in dftxc.C, eleTot sum is:38.000106, tauTot is:0.000000
    6    -211.2820766941      8.80E-08
         cpu   9.36 wall   1.17
in dftxc.C, eleTot sum is:38.000106, tauTot is:0.000000
    7    -211.2820766942      4.73E-08
         cpu   8.89 wall   1.11
in dftxc.C, eleTot sum is:38.000106, tauTot is:0.000000
    8    -211.2820766942      1.49E-08
         cpu   8.48 wall   1.07
in dftxc.C, eleTot sum is:38.000106, tauTot is:0.000000
    9    -211.2820766942      4.23E-09 Convergence criterion met
 ---------------------------------------
 SCF time:  CPU 141.04 s  wall 18.35 s
 SCF   energy in the final basis set = -211.2820766942
 Total energy in the final basis set = -211.2820766942
 Analysis of SCF Wavefunction
 
 --------------------------------------------------------------
                    Orbital Energies (a.u.)
 --------------------------------------------------------------
 
 Alpha MOs
 -- Occupied --
-14.040  -9.920  -9.919  -9.886  -9.885  -0.896  -0.703  -0.654
 -0.535  -0.510  -0.491  -0.384  -0.379  -0.375  -0.351  -0.344
 -0.333  -0.216  -0.188
 -- Virtual --
 -0.007  -0.003   0.024   0.025   0.035   0.045   0.048   0.055
  0.072   0.091   0.105   0.110   0.122   0.126   0.136   0.138
  0.158   0.159   0.185   0.193   0.194   0.203   0.210   0.212
  0.218   0.222   0.232   0.237   0.254   0.268   0.275   0.277
  0.282   0.288   0.293   0.299   0.305   0.311   0.319   0.331
  0.337   0.345   0.347   0.363   0.382   0.385   0.391   0.410
  0.418   0.420   0.422   0.432   0.439   0.445   0.457   0.463
  0.469   0.479   0.489   0.496   0.524   0.535   0.544   0.564
  0.576   0.582   0.597   0.604   0.615   0.626   0.645   0.646
  0.656   0.669   0.670   0.681   0.690   0.701   0.707   0.713
  0.726   0.737   0.754   0.766   0.787   0.788   0.815   0.854
  0.898   0.930   0.941   0.952   0.956   0.973   1.001   1.064
  1.073   1.114   1.130   1.161   1.192   1.198   1.261   1.278
  1.282   1.350   1.360   1.376   1.391   1.399   1.425   1.445
  1.476   1.553   1.597   1.620   1.628   1.647   1.692   1.714
  1.730   1.732   1.764   1.776   1.780   1.849   1.861   1.902
  1.909   1.937   1.984   2.012   2.026   2.041   2.059   2.103
  2.151   2.158   2.208   2.226   2.229   2.239   2.336   2.349
  2.383   2.434   2.443   2.498   2.532   2.541   2.575   2.608
  2.618   2.625   2.655   2.672   2.701   2.715   2.774   2.788
  2.804   2.872   2.875   2.897   2.918   2.982   3.006   3.023
  3.051   3.068   3.083   3.110   3.133   3.149   3.171   3.195
  3.218   3.238   3.268   3.296   3.298   3.353   3.399   3.431
  3.442   3.471   3.472   3.488   3.526   3.560   3.566   3.616
  3.778   3.889   4.009   4.018   4.023   4.089   4.139   4.140
  4.227   4.284   4.295   4.296   4.416   4.533   4.541   4.688
  4.699   4.706   4.812   4.836   4.860   4.866   4.937   5.068
  5.127   5.239   5.405   5.410   5.516   5.582   5.716   5.932
 22.313  22.578  22.657  22.828  32.295
 --------------------------------------------------------------
 
          Ground-State Mulliken Net Atomic Charges

     Atom                 Charge (a.u.)
  ----------------------------------------
      1 C                    -0.484615
      2 C                    -0.148489
      3 C                    -0.129653
      4 C                    -0.505181
      5 H                     0.263102
      6 H                     0.287655
      7 N                     0.126381
      8 H                     0.248557
      9 H                     0.213265
     10 H                     0.126753
     11 H                    -0.268607
     12 H                     0.270832
  ----------------------------------------
  Sum of atomic charges =     0.000000

 -----------------------------------------------------------------
                    Cartesian Multipole Moments
 -----------------------------------------------------------------
    Charge (ESU x 10^10)
                 0.0000
    Dipole Moment (Debye)
         X       1.2996      Y      -1.2814      Z      -0.1042
       Tot       1.8280
    Quadrupole Moments (Debye-Ang)
        XX     -28.0515     XY      -1.6520     YY     -28.3587
        XZ      -0.3823     YZ      -2.2417     ZZ     -35.8152
    Octopole Moments (Debye-Ang^2)
       XXX      18.2549    XXY      -4.6681    XYY       6.9321
       YYY     -12.2859    XXZ     -13.7625    XYZ      -0.2574
       YYZ     -14.1885    XZZ       6.9194    YZZ      -4.5150
       ZZZ     -49.9524
    Hexadecapole Moments (Debye-Ang^3)
      XXXX    -176.6361   XXXY      -2.9924   XXYY     -56.5750
      XYYY      -3.0382   YYYY    -170.1829   XXXZ      12.6426
      XXYZ      -0.3802   XYYZ       5.2507   YYYZ      -0.5062
      XXZZ     -70.0754   XYZZ       2.3803   YYZZ     -67.5358
      XZZZ      25.4302   YZZZ      13.4462   ZZZZ    -210.6080
 -----------------------------------------------------------------
 Calculating analytic gradient of the SCF energy
         cpu  18.67 wall   2.34
in dftxc.C, eleTot sum is:38.000106, tauTot is:0.000000
 Gradient of SCF Energy
            1           2           3           4           5           6
    1   0.0014778  -0.0006285  -0.0001104  -0.0000621  -0.0000176  -0.0000766
    2   0.0000476   0.0001586  -0.0001034  -0.0000657  -0.0000716  -0.0000745
    3  -0.0003059  -0.0000222   0.0000759   0.0001087   0.0000705  -0.0000998
            7           8           9          10          11          12
    1  -0.0002045  -0.0006178   0.0000395   0.0000364   0.0000687   0.0000949
    2  -0.0000479  -0.0001681  -0.0000067   0.0000586   0.0001143   0.0001588
    3   0.0000504   0.0000216   0.0001394   0.0000058  -0.0000122  -0.0000323
 Max gradient component =       1.478E-03
 RMS gradient           =       3.035E-04
 Gradient time:  CPU 31.53 s  wall 4.03 s
 ----------------------------------------------------------------
             Standard Nuclear Orientation (Angstroms)
    I     Atom           X                Y                Z
 ----------------------------------------------------------------
    1      C       0.8553599600     0.5707686000    -0.0294352100
    2      C      -0.3774637600     1.1927111900     0.0044273000
    3      C      -1.3301597200     0.2259670800     0.4374296100
    4      C      -0.6520878000    -0.9575469000     0.6555341600
    5      H      -2.3939158200     0.3736509400     0.5755036500
    6      H      -0.5762290600     2.2235173600    -0.2592350600
    7      N       0.6742798000    -0.7353264700     0.3668015600
    8      H       1.8344660900     0.9388493300    -0.3065599100
    9      H      -0.9995010700    -1.9251094800     0.9924802500
   10      H       1.4040075600    -1.4256032400     0.4429152000
   11      H      -0.1831130000     0.3688098100     3.0197552500
   12      H       0.1658868200     0.5188817900     3.6634531900
 ----------------------------------------------------------------
 Nuclear Repulsion Energy =   172.7168547711 hartrees
 There are       19 alpha and       19 beta electrons

                       Distance Matrix (Angstroms)
             C (  1)   C (  2)   C (  3)   C (  4)   H (  5)   H (  6)
   C (  2)  1.381236
   C (  3)  2.261271  1.424681
   C (  4)  2.253293  2.263398  1.381324
   H (  5)  3.310982  2.250126  1.082798  2.193731
   H (  6)  2.198598  1.082399  2.245876  3.310850  2.724478
   N (  7)  1.376836  2.225940  2.224152  1.375500  3.269130  3.272683
   H (  8)  1.082095  2.248064  3.328149  3.271833  4.356225  2.732044
   H (  9)  3.273260  3.329262  2.246007  1.081853  2.720765  4.353970
   H ( 10)  2.123589  3.197105  3.194274  2.119389  4.204654  4.210752
   H ( 11)  3.227503  3.131899  2.829227  2.751127  3.295761  3.787645
   H ( 12)  3.757059  3.760019  3.568078  3.449130  4.013616  4.340968
             N (  7)   H (  8)   H (  9)   H ( 10)   H ( 11)
   H (  8)  2.145300
   H (  9)  2.146765  4.233336
   H ( 10)  1.007362  2.517468  2.515628
   H ( 11)  2.998734  3.931913  3.168343  3.518377
   H ( 12)  3.563624  4.326839  3.803330  3.960534  0.747442
 
 Requested basis set is non-standard
 There are 100 shells and 248 basis functions
 A cutoff of  1.0D-13 yielded   4960 shell pairs
 There are     31080 function pairs (     39179 Cartesian)
 Smallest overlap matrix eigenvalue = 1.28E-06
 Guess MOs from SCF MO coefficient file
Reading MOs from coefficient file
Reading MOs from coefficient file
 A restricted Kohn-Sham SCF calculation will be
 performed using Pulay DIIS extrapolation
 Exchange:  B97D      Correlation:  B97-D
 Using SG-1 standard quadrature grid
 SCF converges when DIIS error is below 1.0E-08
 using 8 threads for integral computing 
         cpu  10.47 wall   1.31
 -------------------------------------------------------
 OpenMP BLAS3 based DFT computing Module                
 Release: version 1.0, May 2013, Q-Chem Inc. Pittsburgh 
 -------------------------------------------------------
in dftxc.C, eleTot sum is:37.999525, tauTot is:0.000000
 ---------------------------------------
  Cycle       Energy         DIIS Error
 ---------------------------------------
    1    -211.2815670044      5.33E-05
         cpu   9.91 wall   1.24
in dftxc.C, eleTot sum is:38.000110, tauTot is:0.000000
    2    -211.2820758556      1.37E-05
         cpu   9.82 wall   1.23
in dftxc.C, eleTot sum is:38.000110, tauTot is:0.000000
    3    -211.2820707257      2.85E-05
         cpu   9.85 wall   1.23
in dftxc.C, eleTot sum is:38.000110, tauTot is:0.000000
    4    -211.2820774340      3.87E-06
         cpu   9.43 wall   1.18
in dftxc.C, eleTot sum is:38.000110, tauTot is:0.000000
    5    -211.2820775242      1.70E-06
         cpu   9.38 wall   1.18
in dftxc.C, eleTot sum is:38.000110, tauTot is:0.000000
    6    -211.2820775439      1.78E-07
         cpu   9.20 wall   1.15
in dftxc.C, eleTot sum is:38.000110, tauTot is:0.000000
    7    -211.2820775441      9.72E-08
         cpu   9.69 wall   1.22
in dftxc.C, eleTot sum is:38.000110, tauTot is:0.000000
    8    -211.2820775441      2.97E-08
         cpu   9.40 wall   1.17
in dftxc.C, eleTot sum is:38.000110, tauTot is:0.000000
    9    -211.2820775442      8.36E-09 Convergence criterion met
 ---------------------------------------
 SCF time:  CPU 143.44 s  wall 19.97 s
 SCF   energy in the final basis set = -211.2820775442
 Total energy in the final basis set = -211.2820775442
 Analysis of SCF Wavefunction
 
 --------------------------------------------------------------
                    Orbital Energies (a.u.)
 --------------------------------------------------------------
 
 Alpha MOs
 -- Occupied --
-14.040  -9.920  -9.919  -9.885  -9.885  -0.896  -0.703  -0.654
 -0.535  -0.510  -0.491  -0.384  -0.379  -0.375  -0.351  -0.344
 -0.333  -0.216  -0.188
 -- Virtual --
 -0.008  -0.003   0.024   0.025   0.035   0.045   0.048   0.055
  0.072   0.091   0.105   0.110   0.122   0.126   0.136   0.138
  0.158   0.159   0.185   0.193   0.194   0.203   0.210   0.212
  0.218   0.222   0.232   0.237   0.254   0.268   0.275   0.277
  0.282   0.288   0.293   0.299   0.305   0.311   0.319   0.331
  0.337   0.345   0.347   0.363   0.382   0.385   0.391   0.410
  0.419   0.420   0.422   0.432   0.439   0.446   0.457   0.463
  0.469   0.479   0.488   0.496   0.525   0.535   0.544   0.564
  0.576   0.582   0.597   0.604   0.615   0.626   0.645   0.646
  0.656   0.669   0.670   0.681   0.690   0.701   0.707   0.713
  0.726   0.737   0.754   0.766   0.788   0.788   0.815   0.854
  0.898   0.930   0.941   0.953   0.956   0.973   1.001   1.064
  1.073   1.114   1.130   1.162   1.193   1.198   1.261   1.278
  1.283   1.350   1.361   1.376   1.391   1.399   1.426   1.445
  1.476   1.554   1.597   1.619   1.628   1.647   1.693   1.714
  1.729   1.732   1.764   1.776   1.780   1.850   1.861   1.902
  1.909   1.937   1.984   2.012   2.026   2.041   2.058   2.103
  2.151   2.158   2.209   2.226   2.229   2.239   2.336   2.349
  2.384   2.434   2.443   2.498   2.531   2.541   2.575   2.608
  2.618   2.625   2.655   2.672   2.701   2.715   2.774   2.788
  2.804   2.872   2.876   2.898   2.918   2.983   3.006   3.024
  3.051   3.068   3.083   3.110   3.133   3.149   3.171   3.196
  3.218   3.238   3.268   3.296   3.298   3.353   3.399   3.431
  3.442   3.471   3.472   3.489   3.526   3.560   3.566   3.617
  3.778   3.889   4.009   4.019   4.024   4.090   4.139   4.142
  4.228   4.286   4.296   4.297   4.416   4.534   4.541   4.687
  4.699   4.707   4.812   4.837   4.860   4.866   4.937   5.068
  5.127   5.239   5.405   5.410   5.516   5.583   5.717   5.932
 22.313  22.578  22.658  22.830  32.295
 --------------------------------------------------------------
 
          Ground-State Mulliken Net Atomic Charges

     Atom                 Charge (a.u.)
  ----------------------------------------
      1 C                    -0.483251
      2 C                    -0.147806
      3 C                    -0.129944
      4 C                    -0.505300
      5 H                     0.262970
      6 H                     0.287706
      7 N                     0.126271
      8 H                     0.247139
      9 H                     0.213154
     10 H                     0.126829
     11 H                    -0.268563
     12 H                     0.270795
  ----------------------------------------
  Sum of atomic charges =     0.000000

 -----------------------------------------------------------------
                    Cartesian Multipole Moments
 -----------------------------------------------------------------
    Charge (ESU x 10^10)
                 0.0000
    Dipole Moment (Debye)
         X       1.2998      Y      -1.2799      Z      -0.1044
       Tot       1.8271
    Quadrupole Moments (Debye-Ang)
        XX     -28.0588     XY      -1.6580     YY     -28.3541
        XZ      -0.3784     YZ      -2.2403     ZZ     -35.8126
    Octopole Moments (Debye-Ang^2)
       XXX      18.2818    XXY      -4.6720    XYY       6.9391
       YYY     -12.2759    XXZ     -13.7612    XYZ      -0.2560
       YYZ     -14.1856    XZZ       6.9310    YZZ      -4.5110
       ZZZ     -49.9530
    Hexadecapole Moments (Debye-Ang^3)
      XXXX    -176.5949   XXXY      -2.9997   XXYY     -56.5642
      XYYY      -3.0496   YYYY    -170.1464   XXXZ      12.6590
      XXYZ      -0.3762   XYYZ       5.2590   YYYZ      -0.5011
      XXZZ     -70.0638   XYZZ       2.3812   YYZZ     -67.5285
      XZZZ      25.4370   YZZZ      13.4470   ZZZZ    -210.5987
 -----------------------------------------------------------------
 Calculating analytic gradient of the SCF energy
         cpu  18.26 wall   2.28
in dftxc.C, eleTot sum is:38.000110, tauTot is:0.000000
 Gradient of SCF Energy
            1           2           3           4           5           6
    1  -0.0015492   0.0005027   0.0000955   0.0000997  -0.0000102  -0.0000869
    2  -0.0000824  -0.0002727   0.0000514   0.0000134  -0.0000584  -0.0000593
    3   0.0001820  -0.0000544  -0.0000125   0.0000482   0.0000647  -0.0000999
            7           8           9          10          11          12
    1   0.0002060   0.0004995   0.0000663   0.0000045   0.0000767   0.0000954
    2   0.0000397   0.0001316  -0.0000093  -0.0000308   0.0001184   0.0001584
    3  -0.0000150  -0.0002478   0.0001359   0.0000419  -0.0000105  -0.0000326
 Max gradient component =       1.549E-03
 RMS gradient           =       3.017E-04
 Gradient time:  CPU 31.17 s  wall 3.93 s
 ----------------------------------------------------------------
             Standard Nuclear Orientation (Angstroms)
    I     Atom           X                Y                Z
 ----------------------------------------------------------------
    1      C       0.8563599600     0.5717686000    -0.0294352100
    2      C      -0.3774637600     1.1927111900     0.0044273000
    3      C      -1.3301597200     0.2259670800     0.4374296100
    4      C      -0.6520878000    -0.9575469000     0.6555341600
    5      H      -2.3939158200     0.3736509400     0.5755036500
    6      H      -0.5762290600     2.2235173600    -0.2592350600
    7      N       0.6742798000    -0.7353264700     0.3668015600
    8      H       1.8344660900     0.9388493300    -0.3065599100
    9      H      -0.9995010700    -1.9251094800     0.9924802500
   10      H       1.4040075600    -1.4256032400     0.4429152000
   11      H      -0.1831130000     0.3688098100     3.0197552500
   12      H       0.1658868200     0.5188817900     3.6634531900
 ----------------------------------------------------------------
 Nuclear Repulsion Energy =   172.6926630949 hartrees
 There are       19 alpha and       19 beta electrons

                       Distance Matrix (Angstroms)
             C (  1)   C (  2)   C (  3)   C (  4)   H (  5)   H (  6)
   C (  2)  1.381679
   C (  3)  2.262390  1.424681
   C (  4)  2.254640  2.263398  1.381324
   H (  5)  3.312023  2.250126  1.082798  2.193731
   H (  6)  2.198498  1.082399  2.245876  3.310850  2.724478
   N (  7)  1.377917  2.225940  2.224152  1.375500  3.269130  3.272683
   H (  8)  1.080851  2.248064  3.328149  3.271833  4.356225  2.732044
   H (  9)  3.274589  3.329262  2.246007  1.081853  2.720765  4.353970
   H ( 10)  2.124271  3.197105  3.194274  2.119389  4.204654  4.210752
   H ( 11)  3.227888  3.131899  2.829227  2.751127  3.295761  3.787645
   H ( 12)  3.757256  3.760019  3.568078  3.449130  4.013616  4.340968
             N (  7)   H (  8)   H (  9)   H ( 10)   H ( 11)
   H (  8)  2.145300
   H (  9)  2.146765  4.233336
   H ( 10)  1.007362  2.517468  2.515628
   H ( 11)  2.998734  3.931913  3.168343  3.518377
   H ( 12)  3.563624  4.326839  3.803330  3.960534  0.747442
 
 Requested basis set is non-standard
 There are 100 shells and 248 basis functions
 A cutoff of  1.0D-13 yielded   4960 shell pairs
 There are     31080 function pairs (     39179 Cartesian)
 Smallest overlap matrix eigenvalue = 1.28E-06
 Guess MOs from SCF MO coefficient file
Reading MOs from coefficient file
Reading MOs from coefficient file
 A restricted Kohn-Sham SCF calculation will be
 performed using Pulay DIIS extrapolation
 Exchange:  B97D      Correlation:  B97-D
 Using SG-1 standard quadrature grid
 SCF converges when DIIS error is below 1.0E-08
 using 8 threads for integral computing 
         cpu  10.84 wall   1.36
 -------------------------------------------------------
 OpenMP BLAS3 based DFT computing Module                
 Release: version 1.0, May 2013, Q-Chem Inc. Pittsburgh 
 -------------------------------------------------------
in dftxc.C, eleTot sum is:38.000486, tauTot is:0.000000
 ---------------------------------------
  Cycle       Energy         DIIS Error
 ---------------------------------------
    1    -211.2817130725      3.70E-05
         cpu  10.81 wall   1.36
in dftxc.C, eleTot sum is:38.000110, tauTot is:0.000000
    2    -211.2820769726      8.62E-06
         cpu  10.19 wall   1.28
in dftxc.C, eleTot sum is:38.000111, tauTot is:0.000000
    3    -211.2820762406      1.35E-05
         cpu  10.28 wall   1.29
in dftxc.C, eleTot sum is:38.000110, tauTot is:0.000000
    4    -211.2820775280      1.69E-06
         cpu   9.80 wall   1.23
in dftxc.C, eleTot sum is:38.000110, tauTot is:0.000000
    5    -211.2820775431      1.00E-06
         cpu   9.93 wall   1.24
in dftxc.C, eleTot sum is:38.000110, tauTot is:0.000000
    6    -211.2820775511      1.45E-07
         cpu   9.59 wall   1.20
in dftxc.C, eleTot sum is:38.000110, tauTot is:0.000000
    7    -211.2820775513      5.46E-08
         cpu   9.46 wall   1.19
in dftxc.C, eleTot sum is:38.000110, tauTot is:0.000000
    8    -211.2820775513      1.92E-08
         cpu   8.77 wall   1.10
in dftxc.C, eleTot sum is:38.000110, tauTot is:0.000000
    9    -211.2820775513      8.25E-09 Convergence criterion met
 ---------------------------------------
 SCF time:  CPU 144.38 s  wall 18.31 s
 SCF   energy in the final basis set = -211.2820775513
 Total energy in the final basis set = -211.2820775513
 Analysis of SCF Wavefunction
 
 --------------------------------------------------------------
                    Orbital Energies (a.u.)
 --------------------------------------------------------------
 
 Alpha MOs
 -- Occupied --
-14.040  -9.920  -9.919  -9.885  -9.885  -0.896  -0.703  -0.654
 -0.535  -0.510  -0.491  -0.384  -0.379  -0.375  -0.351  -0.344
 -0.333  -0.216  -0.188
 -- Virtual --
 -0.007  -0.003   0.024   0.025   0.035   0.045   0.048   0.055
  0.072   0.091   0.105   0.110   0.122   0.126   0.136   0.138
  0.157   0.159   0.185   0.193   0.194   0.203   0.210   0.212
  0.218   0.222   0.232   0.237   0.254   0.268   0.275   0.277
  0.282   0.288   0.293   0.299   0.305   0.311   0.319   0.331
  0.337   0.345   0.347   0.364   0.382   0.385   0.391   0.410
  0.418   0.420   0.422   0.432   0.439   0.445   0.457   0.463
  0.469   0.479   0.488   0.496   0.524   0.535   0.544   0.564
  0.576   0.582   0.597   0.604   0.615   0.626   0.645   0.646
  0.656   0.669   0.670   0.681   0.690   0.701   0.707   0.713
  0.726   0.737   0.754   0.766   0.787   0.788   0.815   0.854
  0.898   0.930   0.941   0.952   0.956   0.973   1.001   1.064
  1.073   1.114   1.130   1.161   1.193   1.198   1.261   1.278
  1.283   1.350   1.361   1.377   1.391   1.399   1.425   1.445
  1.476   1.553   1.597   1.620   1.628   1.647   1.693   1.714
  1.729   1.732   1.764   1.775   1.780   1.849   1.861   1.902
  1.909   1.937   1.984   2.012   2.026   2.041   2.058   2.103
  2.151   2.158   2.209   2.226   2.228   2.239   2.336   2.349
  2.384   2.434   2.443   2.498   2.531   2.541   2.575   2.608
  2.618   2.625   2.655   2.672   2.701   2.715   2.773   2.788
  2.804   2.872   2.876   2.898   2.918   2.983   3.006   3.023
  3.051   3.068   3.083   3.110   3.133   3.149   3.170   3.196
  3.218   3.238   3.268   3.296   3.298   3.353   3.399   3.431
  3.442   3.471   3.472   3.488   3.526   3.560   3.566   3.617
  3.778   3.889   4.009   4.019   4.024   4.089   4.139   4.141
  4.228   4.285   4.296   4.296   4.416   4.533   4.541   4.687
  4.699   4.706   4.812   4.836   4.859   4.866   4.936   5.068
  5.127   5.239   5.405   5.410   5.516   5.583   5.716   5.932
 22.312  22.577  22.657  22.829  32.295
 --------------------------------------------------------------
 
          Ground-State Mulliken Net Atomic Charges

     Atom                 Charge (a.u.)
  ----------------------------------------
      1 C                    -0.482602
      2 C                    -0.149336
      3 C                    -0.129502
      4 C                    -0.505880
      5 H                     0.263060
      6 H                     0.287809
      7 N                     0.126226
      8 H                     0.248060
      9 H                     0.213171
     10 H                     0.126768
     11 H                    -0.268588
     12 H                     0.270813
  ----------------------------------------
  Sum of atomic charges =    -0.000000

 -----------------------------------------------------------------
                    Cartesian Multipole Moments
 -----------------------------------------------------------------
    Charge (ESU x 10^10)
                -0.0000
    Dipole Moment (Debye)
         X       1.2986      Y      -1.2796      Z      -0.1046
       Tot       1.8261
    Quadrupole Moments (Debye-Ang)
        XX     -28.0551     XY      -1.6522     YY     -28.3554
        XZ      -0.3817     YZ      -2.2418     ZZ     -35.8134
    Octopole Moments (Debye-Ang^2)
       XXX      18.2716    XXY      -4.6735    XYY       6.9320
       YYY     -12.2961    XXZ     -13.7645    XYZ      -0.2555
       YYZ     -14.1859    XZZ       6.9233    YZZ      -4.5174
       ZZZ     -49.9535
    Hexadecapole Moments (Debye-Ang^3)
      XXXX    -176.6059   XXXY      -3.0014   XXYY     -56.5779
      XYYY      -3.0479   YYYY    -170.1935   XXXZ      12.6455
      XXYZ      -0.3789   XYYZ       5.2532   YYYZ      -0.5042
      XXZZ     -70.0711   XYZZ       2.3791   YYZZ     -67.5345
      XZZZ      25.4315   YZZZ      13.4432   ZZZZ    -210.5986
 -----------------------------------------------------------------
 Calculating analytic gradient of the SCF energy
         cpu  18.54 wall   2.32
in dftxc.C, eleTot sum is:38.000110, tauTot is:0.000000
 Gradient of SCF Energy
            1           2           3           4           5           6
    1   0.0000300   0.0001263   0.0000106  -0.0000719  -0.0000185  -0.0000403
    2   0.0009809  -0.0003327   0.0000174  -0.0001045  -0.0000729  -0.0000767
    3  -0.0002985  -0.0000232   0.0000208   0.0001262   0.0000720  -0.0001054
            7           8           9          10          11          12
    1  -0.0000443  -0.0002247   0.0000570   0.0000095   0.0000711   0.0000953
    2  -0.0004997  -0.0001761  -0.0000066  -0.0000024   0.0001148   0.0001585
    3   0.0001388  -0.0000494   0.0001371   0.0000258  -0.0000122  -0.0000321
 Max gradient component =       9.809E-04
 RMS gradient           =       2.156E-04
 Gradient time:  CPU 31.73 s  wall 3.97 s
 ----------------------------------------------------------------
             Standard Nuclear Orientation (Angstroms)
    I     Atom           X                Y                Z
 ----------------------------------------------------------------
    1      C       0.8563599600     0.5697686000    -0.0294352100
    2      C      -0.3774637600     1.1927111900     0.0044273000
    3      C      -1.3301597200     0.2259670800     0.4374296100
    4      C      -0.6520878000    -0.9575469000     0.6555341600
    5      H      -2.3939158200     0.3736509400     0.5755036500
    6      H      -0.5762290600     2.2235173600    -0.2592350600
    7      N       0.6742798000    -0.7353264700     0.3668015600
    8      H       1.8344660900     0.9388493300    -0.3065599100
    9      H      -0.9995010700    -1.9251094800     0.9924802500
   10      H       1.4040075600    -1.4256032400     0.4429152000
   11      H      -0.1831130000     0.3688098100     3.0197552500
   12      H       0.1658868200     0.5188817900     3.6634531900
 ----------------------------------------------------------------
 Nuclear Repulsion Energy =   172.7111649084 hartrees
 There are       19 alpha and       19 beta electrons

                       Distance Matrix (Angstroms)
             C (  1)   C (  2)   C (  3)   C (  4)   H (  5)   H (  6)
   C (  2)  1.382579
   C (  3)  2.262085  1.424681
   C (  4)  2.253284  2.263398  1.381324
   H (  5)  3.311904  2.250126  1.082798  2.193731
   H (  6)  2.200001  1.082399  2.245876  3.310850  2.724478
   N (  7)  1.376020  2.225940  2.224152  1.375500  3.269130  3.272683
   H (  8)  1.081531  2.248064  3.328149  3.271833  4.356225  2.732044
   H (  9)  3.273064  3.329262  2.246007  1.081853  2.720765  4.353970
   H ( 10)  2.122391  3.197105  3.194274  2.119389  4.204654  4.210752
   H ( 11)  3.227763  3.131899  2.829227  2.751127  3.295761  3.787645
   H ( 12)  3.757229  3.760019  3.568078  3.449130  4.013616  4.340968
             N (  7)   H (  8)   H (  9)   H ( 10)   H ( 11)
   H (  8)  2.145300
   H (  9)  2.146765  4.233336
   H ( 10)  1.007362  2.517468  2.515628
   H ( 11)  2.998734  3.931913  3.168343  3.518377
   H ( 12)  3.563624  4.326839  3.803330  3.960534  0.747442
 
 Requested basis set is non-standard
 There are 100 shells and 248 basis functions
 A cutoff of  1.0D-13 yielded   4960 shell pairs
 There are     31080 function pairs (     39179 Cartesian)
 Smallest overlap matrix eigenvalue = 1.28E-06
 Guess MOs from SCF MO coefficient file
Reading MOs from coefficient file
Reading MOs from coefficient file
 A restricted Kohn-Sham SCF calculation will be
 performed using Pulay DIIS extrapolation
 Exchange:  B97D      Correlation:  B97-D
 Using SG-1 standard quadrature grid
 SCF converges when DIIS error is below 1.0E-08
 using 8 threads for integral computing 
         cpu  10.56 wall   1.32
 -------------------------------------------------------
 OpenMP BLAS3 based DFT computing Module                
 Release: version 1.0, May 2013, Q-Chem Inc. Pittsburgh 
 -------------------------------------------------------
in dftxc.C, eleTot sum is:37.999932, tauTot is:0.000000
 ---------------------------------------
  Cycle       Energy         DIIS Error
 ---------------------------------------
    1    -211.2833315782      5.73E-05
         cpu  10.49 wall   1.31
in dftxc.C, eleTot sum is:38.000106, tauTot is:0.000000
    2    -211.2820757851      1.64E-05
         cpu  10.24 wall   1.28
in dftxc.C, eleTot sum is:38.000106, tauTot is:0.000000
    3    -211.2820712206      3.05E-05
         cpu  10.07 wall   1.26
in dftxc.C, eleTot sum is:38.000106, tauTot is:0.000000
    4    -211.2820774759      4.53E-06
         cpu  10.10 wall   1.26
in dftxc.C, eleTot sum is:38.000106, tauTot is:0.000000
    5    -211.2820776120      2.07E-06
         cpu   9.50 wall   1.19
in dftxc.C, eleTot sum is:38.000106, tauTot is:0.000000
    6    -211.2820776469      2.12E-07
         cpu   9.68 wall   1.21
in dftxc.C, eleTot sum is:38.000106, tauTot is:0.000000
    7    -211.2820776471      1.30E-07
         cpu   9.30 wall   1.16
in dftxc.C, eleTot sum is:38.000106, tauTot is:0.000000
    8    -211.2820776473      3.08E-08
         cpu   8.99 wall   1.12
in dftxc.C, eleTot sum is:38.000106, tauTot is:0.000000
    9    -211.2820776473      7.18E-09 Convergence criterion met
 ---------------------------------------
 SCF time:  CPU 143.32 s  wall 18.11 s
 SCF   energy in the final basis set = -211.2820776473
 Total energy in the final basis set = -211.2820776473
 Analysis of SCF Wavefunction
 
 --------------------------------------------------------------
                    Orbital Energies (a.u.)
 --------------------------------------------------------------
 
 Alpha MOs
 -- Occupied --
-14.040  -9.920  -9.919  -9.885  -9.885  -0.896  -0.703  -0.654
 -0.535  -0.510  -0.491  -0.384  -0.379  -0.375  -0.351  -0.344
 -0.333  -0.216  -0.188
 -- Virtual --
 -0.008  -0.003   0.024   0.025   0.035   0.045   0.048   0.055
  0.072   0.091   0.105   0.110   0.122   0.126   0.136   0.138
  0.158   0.159   0.185   0.193   0.194   0.203   0.210   0.212
  0.218   0.222   0.232   0.237   0.254   0.268   0.275   0.277
  0.282   0.288   0.293   0.299   0.305   0.311   0.319   0.331
  0.337   0.345   0.347   0.363   0.382   0.385   0.391   0.410
  0.418   0.420   0.422   0.432   0.439   0.446   0.457   0.463
  0.469   0.479   0.488   0.496   0.524   0.535   0.544   0.564
  0.576   0.582   0.597   0.604   0.615   0.626   0.645   0.646
  0.656   0.669   0.670   0.681   0.690   0.701   0.707   0.713
  0.726   0.737   0.754   0.766   0.788   0.788   0.815   0.854
  0.898   0.930   0.941   0.953   0.956   0.973   1.001   1.064
  1.073   1.114   1.130   1.161   1.193   1.198   1.261   1.278
  1.282   1.350   1.360   1.376   1.391   1.399   1.426   1.445
  1.476   1.554   1.597   1.620   1.628   1.647   1.693   1.714
  1.730   1.732   1.765   1.776   1.780   1.850   1.861   1.902
  1.909   1.937   1.984   2.012   2.025   2.041   2.059   2.103
  2.151   2.158   2.208   2.226   2.229   2.239   2.336   2.349
  2.383   2.434   2.443   2.498   2.531   2.541   2.575   2.609
  2.618   2.625   2.655   2.672   2.701   2.715   2.774   2.788
  2.804   2.872   2.876   2.898   2.918   2.982   3.006   3.024
  3.051   3.068   3.083   3.110   3.133   3.149   3.171   3.196
  3.218   3.238   3.268   3.296   3.298   3.353   3.399   3.431
  3.442   3.471   3.472   3.488   3.526   3.560   3.566   3.616
  3.778   3.889   4.009   4.019   4.023   4.090   4.139   4.141
  4.227   4.285   4.295   4.296   4.416   4.534   4.541   4.688
  4.700   4.707   4.813   4.837   4.860   4.866   4.937   5.068
  5.127   5.239   5.405   5.410   5.516   5.583   5.717   5.932
 22.313  22.578  22.657  22.829  32.295
 --------------------------------------------------------------
 
          Ground-State Mulliken Net Atomic Charges

     Atom                 Charge (a.u.)
  ----------------------------------------
      1 C                    -0.485257
      2 C                    -0.146959
      3 C                    -0.130105
      4 C                    -0.504597
      5 H                     0.263013
      6 H                     0.287554
      7 N                     0.126425
      8 H                     0.247633
      9 H                     0.213247
     10 H                     0.126813
     11 H                    -0.268581
     12 H                     0.270815
  ----------------------------------------
  Sum of atomic charges =    -0.000000

 -----------------------------------------------------------------
                    Cartesian Multipole Moments
 -----------------------------------------------------------------
    Charge (ESU x 10^10)
                -0.0000
    Dipole Moment (Debye)
         X       1.3008      Y      -1.2816      Z      -0.1040
       Tot       1.8291
    Quadrupole Moments (Debye-Ang)
        XX     -28.0551     XY      -1.6578     YY     -28.3574
        XZ      -0.3790     YZ      -2.2401     ZZ     -35.8144
    Octopole Moments (Debye-Ang^2)
       XXX      18.2652    XXY      -4.6666    XYY       6.9392
       YYY     -12.2657    XXZ     -13.7593    XYZ      -0.2579
       YYZ     -14.1882    XZZ       6.9271    YZZ      -4.5086
       ZZZ     -49.9519
    Hexadecapole Moments (Debye-Ang^3)
      XXXX    -176.6249   XXXY      -2.9907   XXYY     -56.5614
      XYYY      -3.0398   YYYY    -170.1359   XXXZ      12.6562
      XXYZ      -0.3775   XYYZ       5.2565   YYYZ      -0.5031
      XXZZ     -70.0681   XYZZ       2.3825   YYZZ     -67.5299
      XZZZ      25.4357   YZZZ      13.4500   ZZZZ    -210.6082
 -----------------------------------------------------------------
 Calculating analytic gradient of the SCF energy
         cpu  18.89 wall   2.36
in dftxc.C, eleTot sum is:38.000106, tauTot is:0.000000
 Gradient of SCF Energy
            1           2           3           4           5           6
    1  -0.0001022  -0.0002542  -0.0000256   0.0001096  -0.0000094  -0.0001232
    2  -0.0010231   0.0002204  -0.0000695   0.0000523  -0.0000572  -0.0000571
    3   0.0001770  -0.0000533   0.0000426   0.0000307   0.0000632  -0.0000942
            7           8           9          10          11          12
    1   0.0000466   0.0001090   0.0000487   0.0000314   0.0000743   0.0000950
    2   0.0004955   0.0001411  -0.0000095   0.0000304   0.0001179   0.0001587
    3  -0.0001049  -0.0001779   0.0001382   0.0000219  -0.0000105  -0.0000328
 Max gradient component =       1.023E-03
 RMS gradient           =       2.149E-04
 Gradient time:  CPU 31.51 s  wall 4.07 s
 ----------------------------------------------------------------
             Standard Nuclear Orientation (Angstroms)
    I     Atom           X                Y                Z
 ----------------------------------------------------------------
    1      C       0.8563599600     0.5707686000    -0.0284352100
    2      C      -0.3774637600     1.1927111900     0.0044273000
    3      C      -1.3301597200     0.2259670800     0.4374296100
    4      C      -0.6520878000    -0.9575469000     0.6555341600
    5      H      -2.3939158200     0.3736509400     0.5755036500
    6      H      -0.5762290600     2.2235173600    -0.2592350600
    7      N       0.6742798000    -0.7353264700     0.3668015600
    8      H       1.8344660900     0.9388493300    -0.3065599100
    9      H      -0.9995010700    -1.9251094800     0.9924802500
   10      H       1.4040075600    -1.4256032400     0.4429152000
   11      H      -0.1831130000     0.3688098100     3.0197552500
   12      H       0.1658868200     0.5188817900     3.6634531900
 ----------------------------------------------------------------
 Nuclear Repulsion Energy =   172.7074709408 hartrees
 There are       19 alpha and       19 beta electrons

                       Distance Matrix (Angstroms)
             C (  1)   C (  2)   C (  3)   C (  4)   H (  5)   H (  6)
   C (  2)  1.382105
   C (  3)  2.262031  1.424681
   C (  4)  2.253659  2.263398  1.381324
   H (  5)  3.311781  2.250126  1.082798  2.193731
   H (  6)  2.199354  1.082399  2.245876  3.310850  2.724478
   N (  7)  1.376681  2.225940  2.224152  1.375500  3.269130  3.272683
   H (  8)  1.081447  2.248064  3.328149  3.271833  4.356225  2.732044
   H (  9)  3.273514  3.329262  2.246007  1.081853  2.720765  4.353970
   H ( 10)  2.123108  3.197105  3.194274  2.119389  4.204654  4.210752
   H ( 11)  3.226880  3.131899  2.829227  2.751127  3.295761  3.787645
   H ( 12)  3.756259  3.760019  3.568078  3.449130  4.013616  4.340968
             N (  7)   H (  8)   H (  9)   H ( 10)   H ( 11)
   H (  8)  2.145300
   H (  9)  2.146765  4.233336
   H ( 10)  1.007362  2.517468  2.515628
   H ( 11)  2.998734  3.931913  3.168343  3.518377
   H ( 12)  3.563624  4.326839  3.803330  3.960534  0.747442
 
 Requested basis set is non-standard
 There are 100 shells and 248 basis functions
 A cutoff of  1.0D-13 yielded   4960 shell pairs
 There are     31080 function pairs (     39179 Cartesian)
 Smallest overlap matrix eigenvalue = 1.28E-06
 Guess MOs from SCF MO coefficient file
Reading MOs from coefficient file
Reading MOs from coefficient file
 A restricted Kohn-Sham SCF calculation will be
 performed using Pulay DIIS extrapolation
 Exchange:  B97D      Correlation:  B97-D
 Using SG-1 standard quadrature grid
 SCF converges when DIIS error is below 1.0E-08
 using 8 threads for integral computing 
         cpu  10.89 wall   1.37
 -------------------------------------------------------
 OpenMP BLAS3 based DFT computing Module                
 Release: version 1.0, May 2013, Q-Chem Inc. Pittsburgh 
 -------------------------------------------------------
in dftxc.C, eleTot sum is:38.000172, tauTot is:0.000000
 ---------------------------------------
  Cycle       Energy         DIIS Error
 ---------------------------------------
    1    -211.2815877324      3.11E-05
         cpu  10.57 wall   1.32
in dftxc.C, eleTot sum is:38.000108, tauTot is:0.000000
    2    -211.2820777491      6.36E-06
         cpu   9.49 wall   1.19
in dftxc.C, eleTot sum is:38.000108, tauTot is:0.000000
    3    -211.2820768973      1.28E-05
         cpu  10.28 wall   1.29
in dftxc.C, eleTot sum is:38.000108, tauTot is:0.000000
    4    -211.2820780064      1.82E-06
         cpu   9.62 wall   1.21
in dftxc.C, eleTot sum is:38.000108, tauTot is:0.000000
    5    -211.2820780281      8.11E-07
         cpu   9.52 wall   1.19
in dftxc.C, eleTot sum is:38.000108, tauTot is:0.000000
    6    -211.2820780335      6.98E-08
         cpu   8.89 wall   1.11
in dftxc.C, eleTot sum is:38.000108, tauTot is:0.000000
    7    -211.2820780335      3.31E-08
         cpu   8.91 wall   1.11
in dftxc.C, eleTot sum is:38.000108, tauTot is:0.000000
    8    -211.2820780335      1.31E-08
         cpu   8.68 wall   1.08
in dftxc.C, eleTot sum is:38.000108, tauTot is:0.000000
    9    -211.2820780335      2.95E-09 Convergence criterion met
 ---------------------------------------
 SCF time:  CPU 142.73 s  wall 20.14 s
 SCF   energy in the final basis set = -211.2820780335
 Total energy in the final basis set = -211.2820780335
 Analysis of SCF Wavefunction
 
 --------------------------------------------------------------
                    Orbital Energies (a.u.)
 --------------------------------------------------------------
 
 Alpha MOs
 -- Occupied --
-14.040  -9.920  -9.919  -9.885  -9.885  -0.896  -0.703  -0.654
 -0.535  -0.510  -0.491  -0.384  -0.379  -0.375  -0.351  -0.344
 -0.333  -0.216  -0.188
 -- Virtual --
 -0.008  -0.003   0.024   0.025   0.035   0.045   0.048   0.055
  0.072   0.091   0.105   0.110   0.122   0.126   0.136   0.138
  0.158   0.159   0.185   0.193   0.194   0.203   0.210   0.212
  0.218   0.222   0.232   0.237   0.254   0.268   0.275   0.277
  0.282   0.288   0.293   0.299   0.305   0.311   0.319   0.331
  0.337   0.345   0.347   0.363   0.382   0.385   0.391   0.410
  0.419   0.420   0.422   0.432   0.439   0.446   0.457   0.463
  0.469   0.479   0.488   0.496   0.524   0.535   0.544   0.564
  0.576   0.582   0.597   0.604   0.615   0.626   0.645   0.646
  0.656   0.670   0.670   0.681   0.690   0.701   0.707   0.713
  0.726   0.737   0.754   0.766   0.787   0.789   0.815   0.854
  0.898   0.930   0.941   0.952   0.956   0.973   1.001   1.064
  1.073   1.114   1.130   1.161   1.192   1.198   1.261   1.278
  1.283   1.350   1.361   1.376   1.391   1.399   1.426   1.445
  1.476   1.553   1.597   1.620   1.628   1.647   1.693   1.714
  1.730   1.732   1.764   1.776   1.780   1.849   1.861   1.902
  1.909   1.937   1.984   2.012   2.026   2.041   2.059   2.103
  2.151   2.158   2.209   2.226   2.229   2.239   2.336   2.349
  2.383   2.434   2.443   2.498   2.531   2.541   2.575   2.608
  2.618   2.625   2.655   2.672   2.701   2.715   2.774   2.788
  2.804   2.872   2.876   2.898   2.918   2.983   3.006   3.024
  3.051   3.068   3.083   3.110   3.133   3.149   3.171   3.196
  3.218   3.238   3.268   3.296   3.298   3.353   3.399   3.431
  3.442   3.471   3.472   3.488   3.526   3.560   3.566   3.617
  3.778   3.889   4.009   4.019   4.024   4.089   4.139   4.141
  4.228   4.285   4.296   4.297   4.416   4.533   4.541   4.688
  4.699   4.707   4.812   4.837   4.860   4.866   4.937   5.068
  5.127   5.239   5.405   5.410   5.516   5.583   5.717   5.932
 22.313  22.578  22.657  22.829  32.295
 --------------------------------------------------------------
 
          Ground-State Mulliken Net Atomic Charges

     Atom                 Charge (a.u.)
  ----------------------------------------
      1 C                    -0.483962
      2 C                    -0.148054
      3 C                    -0.129676
      4 C                    -0.505100
      5 H                     0.262972
      6 H                     0.287631
      7 N                     0.126292
      8 H                     0.247698
      9 H                     0.213195
     10 H                     0.126784
     11 H                    -0.268603
     12 H                     0.270822
  ----------------------------------------
  Sum of atomic charges =    -0.000000

 -----------------------------------------------------------------
                    Cartesian Multipole Moments
 -----------------------------------------------------------------
    Charge (ESU x 10^10)
                -0.0000
    Dipole Moment (Debye)
         X       1.2999      Y      -1.2810      Z      -0.1050
       Tot       1.8280
    Quadrupole Moments (Debye-Ang)
        XX     -28.0563     XY      -1.6569     YY     -28.3570
        XZ      -0.3809     YZ      -2.2416     ZZ     -35.8130
    Octopole Moments (Debye-Ang^2)
       XXX      18.2656    XXY      -4.6718    XYY       6.9357
       YYY     -12.2821    XXZ     -13.7690    XYZ      -0.2572
       YYZ     -14.1946    XZZ       6.9259    YZZ      -4.5126
       ZZZ     -49.9706
    Hexadecapole Moments (Debye-Ang^3)
      XXXX    -176.6288   XXXY      -3.0039   XXYY     -56.5719
      XYYY      -3.0505   YYYY    -170.1659   XXXZ      12.6344
      XXYZ      -0.3834   XYYZ       5.2502   YYYZ      -0.5143
      XXZZ     -70.0687   XYZZ       2.3792   YYZZ     -67.5338
      XZZZ      25.4180   YZZZ      13.4373   ZZZZ    -210.5949
 -----------------------------------------------------------------
 Calculating analytic gradient of the SCF energy
         cpu  18.49 wall   2.31
in dftxc.C, eleTot sum is:38.000108, tauTot is:0.000000
 Gradient of SCF Energy
            1           2           3           4           5           6
    1  -0.0002825  -0.0000407   0.0000084   0.0000616  -0.0000108  -0.0000947
    2  -0.0002582  -0.0000453  -0.0000207   0.0000116  -0.0000598  -0.0000635
    3   0.0002448  -0.0001566   0.0000475   0.0000887   0.0000723  -0.0001006
            7           8           9          10          11          12
    1   0.0000337   0.0000816   0.0000546   0.0000189   0.0000743   0.0000955
    2   0.0001161   0.0000434  -0.0000077   0.0000078   0.0001172   0.0001592
    3  -0.0001163  -0.0001909   0.0001406   0.0000135  -0.0000114  -0.0000317
 Max gradient component =       2.825E-04
 RMS gradient           =       1.096E-04
 Gradient time:  CPU 30.78 s  wall 3.86 s
 ----------------------------------------------------------------
             Standard Nuclear Orientation (Angstroms)
    I     Atom           X                Y                Z
 ----------------------------------------------------------------
    1      C       0.8563599600     0.5707686000    -0.0304352100
    2      C      -0.3774637600     1.1927111900     0.0044273000
    3      C      -1.3301597200     0.2259670800     0.4374296100
    4      C      -0.6520878000    -0.9575469000     0.6555341600
    5      H      -2.3939158200     0.3736509400     0.5755036500
    6      H      -0.5762290600     2.2235173600    -0.2592350600
    7      N       0.6742798000    -0.7353264700     0.3668015600
    8      H       1.8344660900     0.9388493300    -0.3065599100
    9      H      -0.9995010700    -1.9251094800     0.9924802500
   10      H       1.4040075600    -1.4256032400     0.4429152000
   11      H      -0.1831130000     0.3688098100     3.0197552500
   12      H       0.1658868200     0.5188817900     3.6634531900
 ----------------------------------------------------------------
 Nuclear Repulsion Energy =   172.6963286875 hartrees
 There are       19 alpha and       19 beta electrons

                       Distance Matrix (Angstroms)
             C (  1)   C (  2)   C (  3)   C (  4)   H (  5)   H (  6)
   C (  2)  1.382154
   C (  3)  2.262444  1.424681
   C (  4)  2.254266  2.263398  1.381324
   H (  5)  3.312146  2.250126  1.082798  2.193731
   H (  6)  2.199145  1.082399  2.245876  3.310850  2.724478
   N (  7)  1.377256  2.225940  2.224152  1.375500  3.269130  3.272683
   H (  8)  1.080935  2.248064  3.328149  3.271833  4.356225  2.732044
   H (  9)  3.274139  3.329262  2.246007  1.081853  2.720765  4.353970
   H ( 10)  2.123553  3.197105  3.194274  2.119389  4.204654  4.210752
   H ( 11)  3.228770  3.131899  2.829227  2.751127  3.295761  3.787645
   H ( 12)  3.758225  3.760019  3.568078  3.449130  4.013616  4.340968
             N (  7)   H (  8)   H (  9)   H ( 10)   H ( 11)
   H (  8)  2.145300
   H (  9)  2.146765  4.233336
   H ( 10)  1.007362  2.517468  2.515628
   H ( 11)  2.998734  3.931913  3.168343  3.518377
   H ( 12)  3.563624  4.326839  3.803330  3.960534  0.747442
 
 Requested basis set is non-standard
 There are 100 shells and 248 basis functions
 A cutoff of  1.0D-13 yielded   4960 shell pairs
 There are     31080 function pairs (     39179 Cartesian)
 Smallest overlap matrix eigenvalue = 1.28E-06
 Guess MOs from SCF MO coefficient file
Reading MOs from coefficient file
Reading MOs from coefficient file
 A restricted Kohn-Sham SCF calculation will be
 performed using Pulay DIIS extrapolation
 Exchange:  B97D      Correlation:  B97-D
 Using SG-1 standard quadrature grid
 SCF converges when DIIS error is below 1.0E-08
 using 8 threads for integral computing 
         cpu   9.95 wall   1.24
 -------------------------------------------------------
 OpenMP BLAS3 based DFT computing Module                
 Release: version 1.0, May 2013, Q-Chem Inc. Pittsburgh 
 -------------------------------------------------------
in dftxc.C, eleTot sum is:38.000151, tauTot is:0.000000
 ---------------------------------------
  Cycle       Energy         DIIS Error
 ---------------------------------------
    1    -211.2818086904      3.90E-05
         cpu  10.22 wall   1.28
in dftxc.C, eleTot sum is:38.000108, tauTot is:0.000000
    2    -211.2820782597      5.40E-06
         cpu   9.54 wall   1.19
in dftxc.C, eleTot sum is:38.000108, tauTot is:0.000000
    3    -211.2820776572      1.04E-05
         cpu   9.21 wall   1.15
in dftxc.C, eleTot sum is:38.000108, tauTot is:0.000000
    4    -211.2820784581      1.55E-06
         cpu   9.54 wall   1.19
in dftxc.C, eleTot sum is:38.000108, tauTot is:0.000000
    5    -211.2820784755      6.42E-07
         cpu   9.29 wall   1.16
in dftxc.C, eleTot sum is:38.000108, tauTot is:0.000000
    6    -211.2820784787      1.06E-07
         cpu   9.10 wall   1.14
in dftxc.C, eleTot sum is:38.000108, tauTot is:0.000000
    7    -211.2820784788      5.82E-08
         cpu   8.65 wall   1.08
in dftxc.C, eleTot sum is:38.000108, tauTot is:0.000000
    8    -211.2820784788      1.83E-08
         cpu   8.65 wall   1.08
in dftxc.C, eleTot sum is:38.000108, tauTot is:0.000000
    9    -211.2820784788      3.91E-09 Convergence criterion met
 ---------------------------------------
 SCF time:  CPU 140.77 s  wall 20.93 s
 SCF   energy in the final basis set = -211.2820784788
 Total energy in the final basis set = -211.2820784788
 Analysis of SCF Wavefunction
 
 --------------------------------------------------------------
                    Orbital Energies (a.u.)
 --------------------------------------------------------------
 
 Alpha MOs
 -- Occupied --
-14.040  -9.920  -9.919  -9.885  -9.885  -0.896  -0.703  -0.654
 -0.535  -0.510  -0.491  -0.384  -0.379  -0.375  -0.351  -0.344
 -0.333  -0.216  -0.188
 -- Virtual --
 -0.007  -0.003   0.024   0.025   0.035   0.045   0.048   0.055
  0.072   0.091   0.105   0.110   0.122   0.126   0.136   0.138
  0.158   0.159   0.185   0.193   0.194   0.203   0.210   0.212
  0.218   0.222   0.232   0.237   0.254   0.268   0.275   0.277
  0.282   0.288   0.293   0.299   0.305   0.311   0.319   0.331
  0.337   0.345   0.347   0.363   0.382   0.385   0.391   0.410
  0.418   0.420   0.422   0.432   0.439   0.445   0.457   0.463
  0.469   0.479   0.488   0.496   0.524   0.535   0.544   0.564
  0.576   0.582   0.597   0.604   0.615   0.626   0.645   0.646
  0.656   0.669   0.670   0.681   0.690   0.701   0.707   0.713
  0.726   0.737   0.754   0.766   0.788   0.788   0.815   0.854
  0.898   0.930   0.941   0.952   0.956   0.973   1.001   1.064
  1.073   1.114   1.130   1.161   1.193   1.198   1.261   1.278
  1.282   1.350   1.360   1.376   1.391   1.399   1.425   1.445
  1.476   1.554   1.597   1.619   1.628   1.647   1.692   1.714
  1.729   1.732   1.764   1.775   1.780   1.849   1.861   1.902
  1.909   1.937   1.984   2.012   2.026   2.041   2.058   2.103
  2.151   2.158   2.208   2.226   2.229   2.239   2.336   2.349
  2.384   2.434   2.443   2.498   2.531   2.541   2.575   2.608
  2.618   2.625   2.655   2.672   2.701   2.715   2.774   2.788
  2.804   2.872   2.876   2.898   2.918   2.983   3.006   3.023
  3.051   3.068   3.083   3.110   3.133   3.149   3.171   3.196
  3.218   3.238   3.268   3.296   3.298   3.353   3.399   3.431
  3.442   3.471   3.472   3.488   3.526   3.560   3.566   3.617
  3.778   3.889   4.009   4.019   4.023   4.089   4.139   4.141
  4.228   4.285   4.295   4.296   4.416   4.533   4.541   4.687
  4.699   4.706   4.812   4.836   4.860   4.866   4.936   5.068
  5.127   5.239   5.405   5.410   5.516   5.583   5.716   5.932
 22.313  22.578  22.657  22.829  32.295
 --------------------------------------------------------------
 
          Ground-State Mulliken Net Atomic Charges

     Atom                 Charge (a.u.)
  ----------------------------------------
      1 C                    -0.483899
      2 C                    -0.148241
      3 C                    -0.129918
      4 C                    -0.505381
      5 H                     0.263100
      6 H                     0.287729
      7 N                     0.126358
      8 H                     0.247992
      9 H                     0.213223
     10 H                     0.126798
     11 H                    -0.268567
     12 H                     0.270805
  ----------------------------------------
  Sum of atomic charges =     0.000000

 -----------------------------------------------------------------
                    Cartesian Multipole Moments
 -----------------------------------------------------------------
    Charge (ESU x 10^10)
                 0.0000
    Dipole Moment (Debye)
         X       1.2995      Y      -1.2802      Z      -0.1036
       Tot       1.8272
    Quadrupole Moments (Debye-Ang)
        XX     -28.0540     XY      -1.6531     YY     -28.3559
        XZ      -0.3798     YZ      -2.2403     ZZ     -35.8149
    Octopole Moments (Debye-Ang^2)
       XXX      18.2712    XXY      -4.6683    XYY       6.9355
       YYY     -12.2798    XXZ     -13.7548    XYZ      -0.2562
       YYZ     -14.1796    XZZ       6.9245    YZZ      -4.5134
       ZZZ     -49.9348
    Hexadecapole Moments (Debye-Ang^3)
      XXXX    -176.6023   XXXY      -2.9882   XXYY     -56.5674
      XYYY      -3.0372   YYYY    -170.1636   XXXZ      12.6673
      XXYZ      -0.3730   XYYZ       5.2594   YYYZ      -0.4929
      XXZZ     -70.0705   XYZZ       2.3824   YYZZ     -67.5306
      XZZZ      25.4493   YZZZ      13.4559   ZZZZ    -210.6120
 -----------------------------------------------------------------
 Calculating analytic gradient of the SCF energy
         cpu  18.83 wall   2.36
in dftxc.C, eleTot sum is:38.000108, tauTot is:0.000000
 Gradient of SCF Energy
            1           2           3           4           5           6
    1   0.0002116  -0.0000886  -0.0000235  -0.0000240  -0.0000170  -0.0000688
    2   0.0002199  -0.0000667  -0.0000313  -0.0000639  -0.0000702  -0.0000703
    3  -0.0003675   0.0000801   0.0000159   0.0000684   0.0000630  -0.0000991
            7           8           9          10          11          12
    1  -0.0000319  -0.0001969   0.0000512   0.0000220   0.0000710   0.0000948
    2  -0.0001241  -0.0000786  -0.0000083   0.0000201   0.0001154   0.0001580
    3   0.0001516  -0.0000369   0.0001348   0.0000342  -0.0000114  -0.0000332
 Max gradient component =       3.675E-04
 RMS gradient           =       1.117E-04
 Gradient time:  CPU 32.19 s  wall 4.04 s
 ----------------------------------------------------------------
             Standard Nuclear Orientation (Angstroms)
    I     Atom           X                Y                Z
 ----------------------------------------------------------------
    1      C       0.8563599600     0.5707686000    -0.0294352100
    2      C      -0.3764637600     1.1927111900     0.0044273000
    3      C      -1.3301597200     0.2259670800     0.4374296100
[...]
D   1   1.00
      0.76889830417E-01            1.0000000        
F   1   1.00
      1.4190000000           1.0000000        
F   1   1.00
      0.48500000000          1.0000000        
G   1   1.00
      1.0110000000           1.0000000        
****
N     0 
S   8   1.00
  90726.8892100              0.39257887368E-04      
  13590.5288010              0.30513316455E-03      
   3092.9883781              0.16000560446E-02      
    875.99876362             0.66982937306E-02      
    285.74469982             0.23690078765E-01      
    103.11913417             0.71455405268E-01      
     40.128556777            0.17632774876    
     16.528095704            0.32677592815    
S   2   1.00
     69.390960983            0.80052094386E-01      
     20.428200596            0.78268063538    
S   1   1.00
      7.1292587972           1.0000000        
S   1   1.00
      3.1324304893           1.0000000        
S   1   1.00
      0.98755778723          1.0000000        
S   1   1.00
      0.38765721307          1.0000000        
S   1   1.00
      0.14909883075          1.0000000        
S   1   1.00
      0.62151630318E-01            1.0000000        
P   5   1.00
    150.05742670            -0.86216165986E-03      
     35.491599483           -0.68571273236E-02      
     11.247864223           -0.31795688855E-01      
      4.0900305195          -0.10537396822    
      1.6220573146          -0.24519708041    
P   1   1.00
      0.66442261530          1.0000000        
P   1   1.00
      0.27099770070          1.0000000        
P   1   1.00
      0.10688749984          1.0000000        
D   1   1.00
      2.8370000000           1.0000000        
D   1   1.00
      0.96800000000          1.0000000        
D   1   1.00
      0.33500000000          1.0000000        
D   1   1.00
      0.10825280010          1.0000000        
F   1   1.00
      2.0270000000           1.0000000        
F   1   1.00
      0.68500000000          1.0000000        
G   1   1.00
      1.4270000000           1.0000000        
****
O     0 
S   8   1.00
 116506.4690800              0.40383857939E-04      
  17504.3497240              0.31255139004E-03      
   3993.4513230              0.16341473495E-02      
   1133.0063186              0.68283224757E-02      
    369.99569594             0.24124410221E-01      
    133.62074349             0.72730206154E-01      
     52.035643649            0.17934429892    
     21.461939313            0.33059588895    
S   2   1.00
     89.835051252            0.96468652996E-01      
     26.428010844            0.94117481120    
S   1   1.00
      9.2822824649           1.0000000        
S   1   1.00
      4.0947728533           1.0000000        
S   1   1.00
      1.3255349078           1.0000000        
S   1   1.00
      0.51877230787          1.0000000        
S   1   1.00
      0.19772676454          1.0000000        
S   1   1.00
      0.69638535104E-01            1.0000000        
P   5   1.00
    191.15255810             0.25115697705E-02      
     45.233356739            0.20039240864E-01      
     14.353465922            0.93609064762E-01      
      5.2422371832           0.30618127124    
      2.0792418599           0.67810501439    
P   1   1.00
      0.84282371424          1.0000000        
P   1   1.00
      0.33617694891          1.0000000        
P   1   1.00
      0.12863997974          1.0000000        
P   1   1.00
      0.43598162776E-01            1.0000000        
D   1   1.00
      3.7750000000           1.0000000        
D   1   1.00
      1.3000000000           1.0000000        
D   1   1.00
      0.44400000000          1.0000000        
D   1   1.00
      0.12546378695          1.0000000        
F   1   1.00
      2.6660000000           1.0000000        
F   1   1.00
      0.85900000000          1.0000000        
G   1   1.00
      1.8460000000           1.0000000        
****
$end



--------------------------------------------------------------
 ----------------------------------------------------------------
             Standard Nuclear Orientation (Angstroms)
    I     Atom           X                Y                Z
 ----------------------------------------------------------------
    1      C       0.8563599600     0.5707686000    -0.0294352100
    2      C      -0.3774637600     1.1927111900     0.0044273000
    3      C      -1.3301597200     0.2259670800     0.4374296100
    4      C      -0.6520878000    -0.9575469000     0.6555341600
    5      H      -2.3939158200     0.3736509400     0.5755036500
    6      H      -0.5762290600     2.2235173600    -0.2592350600
    7      N       0.6742798000    -0.7353264700     0.3668015600
    8      H       1.8344660900     0.9388493300    -0.3065599100
    9      H      -0.9995010700    -1.9251094800     0.9924802500
   10      H       1.4040075600    -1.4256032400     0.4429152000
   11      H      -0.1831130000     0.3688098100     3.0197552500
   12      H       0.1658868200     0.5188817900     3.6634531900
 ----------------------------------------------------------------
 Nuclear Repulsion Energy =   172.7019091638 hartrees
 There are       19 alpha and       19 beta electrons

 Q-Chem warning in module /home/tsivion/software/qchem411/forms1/BasisType.C, line 1209:

 Setting pure/cartesian flag to 2111 for general basis


 Requested basis set is non-standard
 There are 172 shells and 546 basis functions

Total QAlloc Memory Limit   8000 MB
Mega-Array Size      2933 MB
MEM_STATIC part      3000 MB

                       Distance Matrix (Angstroms)
             C (  1)   C (  2)   C (  3)   C (  4)   H (  5)   H (  6)
   C (  2)  1.382129
   C (  3)  2.262238  1.424681
   C (  4)  2.253962  2.263398  1.381324
   H (  5)  3.311963  2.250126  1.082798  2.193731
   H (  6)  2.199249  1.082399  2.245876  3.310850  2.724478
   N (  7)  1.376968  2.225940  2.224152  1.375500  3.269130  3.272683
   H (  8)  1.081191  2.248064  3.328149  3.271833  4.356225  2.732044
   H (  9)  3.273826  3.329262  2.246007  1.081853  2.720765  4.353970
   H ( 10)  2.123331  3.197105  3.194274  2.119389  4.204654  4.210752
   H ( 11)  3.227825  3.131899  2.829227  2.751127  3.295761  3.787645
   H ( 12)  3.757242  3.760019  3.568078  3.449130  4.013616  4.340968
             N (  7)   H (  8)   H (  9)   H ( 10)   H ( 11)
   H (  8)  2.145300
   H (  9)  2.146765  4.233336
   H ( 10)  1.007362  2.517468  2.515628
   H ( 11)  2.998734  3.931913  3.168343  3.518377
   H ( 12)  3.563624  4.326839  3.803330  3.960534  0.747442
 
 A cutoff of  1.0D-13 yielded  13935 shell pairs
 There are    141327 function pairs (    207774 Cartesian)
 Smallest overlap matrix eigenvalue = 8.47E-08
 Linear dependence detected in AO basis
 Number of orthogonalized atomic orbitals = 543
 Maximum deviation from orthogonality = 1.107E-10

  Scale SEOQF with 1.000000e-01/1.000000e-01/1.000000e-01

 Standard Electronic Orientation quadrupole field applied
 Nucleus-field energy     =     0.0000000004 hartrees
 Guess MOs from core Hamiltonian diagonalization
 A restricted Kohn-Sham SCF calculation will be
 performed using Pulay DIIS extrapolation
 Exchange:  B97D      Correlation:  B97-D
 Using SG-1 standard quadrature grid
 SCF converges when DIIS error is below 1.0E-07
 using 8 threads for integral computing 
 
 -------------------------------------------------------
 OpenMP Integral Computing Module                       
 Release: version 1.0, May 2013, Q-Chem Inc. Pittsburgh 
 -------------------------------------------------------
 Integral Job Info:
 Integral job number is                      20
 Integral operator is                         1
 short-range coefficients               -999999
 long-range coefficients                -999999
 Omega coefficients                           0
 if combine SR and LR in K              -999999
 Integral screening is                        1
 Integral computing path is                   2
 max size of driver memory is           3200000
 size of driver memory is               1704462
 size of scratch memory is              4109775
 max col of scratch BK array              50625
 max len of scratch array in speh3         2114
 max len of scratch index in speh4           50
 max int batch size is                       50
 min int batch size is                       15
 fixed nKL is                                15
 max L of basis functions is                  4
 order of int derivative is                   0
 number of shells is                        172
 number of basis is                         661
 number of cartesian basis is               661
 number of contracted shell pairs         13935
 number of primitive shell pairs          25068
 maxK2 (contraction) of shell pair           64
 max number of K2 of shell pair               1
 max number of CS2 of shell pair           2197
 max number of PS2 of shell pair           2197
 mem total for path MDJ                  567700
 -------------------------------------------------------
         cpu 186.23 wall  23.29
 -------------------------------------------------------
 OpenMP BLAS3 based DFT computing Module                
 Release: version 1.0, May 2013, Q-Chem Inc. Pittsburgh 
 -------------------------------------------------------
in dftxc.C, eleTot sum is:37.999963, tauTot is:0.000000
 ---------------------------------------
  Cycle       Energy         DIIS Error
 ---------------------------------------
    1    -156.2605535747      4.49E-02
         cpu 184.54 wall  23.11
in dftxc.C, eleTot sum is:37.989247, tauTot is:0.000000
    2    -145.9018741648      2.15E-02
         cpu 183.42 wall  22.93
in dftxc.C, eleTot sum is:37.999933, tauTot is:0.000000
    3    -185.7049510205      2.39E-02
         cpu 178.56 wall  22.33
in dftxc.C, eleTot sum is:38.000033, tauTot is:0.000000
    4    -199.9038270948      1.65E-02
         cpu 181.45 wall  22.71
in dftxc.C, eleTot sum is:38.000053, tauTot is:0.000000
    5    -202.3692707501      1.38E-02
         cpu 179.68 wall  22.47
in dftxc.C, eleTot sum is:38.000092, tauTot is:0.000000
    6    -210.9017579719      3.08E-03
         cpu 175.68 wall  21.99
in dftxc.C, eleTot sum is:38.000219, tauTot is:0.000000
    7    -210.7900082720      4.03E-03
         cpu 178.07 wall  22.28
in dftxc.C, eleTot sum is:38.000081, tauTot is:0.000000
    8    -211.2763711437      6.29E-04
         cpu 175.94 wall  22.01
in dftxc.C, eleTot sum is:38.000082, tauTot is:0.000000
    9    -211.2925398290      2.80E-04
         cpu 169.97 wall  21.26
in dftxc.C, eleTot sum is:38.000079, tauTot is:0.000000
   10    -211.2941277162      1.73E-04
         cpu 166.36 wall  20.81
in dftxc.C, eleTot sum is:38.000081, tauTot is:0.000000
   11    -211.2952604127      4.49E-05
         cpu 163.39 wall  20.43
in dftxc.C, eleTot sum is:38.000081, tauTot is:0.000000
   12    -211.2953405108      8.34E-06
         cpu 158.60 wall  19.83
in dftxc.C, eleTot sum is:38.000081, tauTot is:0.000000
   13    -211.2953431416      2.53E-06
         cpu 152.74 wall  19.13
in dftxc.C, eleTot sum is:38.000081, tauTot is:0.000000
   14    -211.2953433473      1.13E-06
         cpu 145.48 wall  18.19
in dftxc.C, eleTot sum is:38.000081, tauTot is:0.000000
   15    -211.2953433925      2.23E-07
         cpu 172.67 wall  21.59
in dftxc.C, eleTot sum is:38.000081, tauTot is:0.000000
   16    -211.2953433943      3.05E-08 Convergence criterion met
 ---------------------------------------
 SCF time:  CPU 3047.26 s  wall 396.48 s
 SCF   energy in the final basis set = -211.2953433943
 Total energy in the final basis set = -211.2953433943
 Analysis of SCF Wavefunction
 
 --------------------------------------------------------------
                    Orbital Energies (a.u.)
 --------------------------------------------------------------
 
 Alpha MOs
 -- Occupied --
-14.041  -9.921  -9.921  -9.887  -9.887  -0.896  -0.704  -0.654
 -0.535  -0.510  -0.491  -0.384  -0.379  -0.375  -0.352  -0.345
 -0.333  -0.217  -0.188
 -- Virtual --
 -0.012  -0.004   0.019   0.019   0.034   0.040   0.042   0.046
  0.063   0.075   0.089   0.091   0.114   0.121   0.126   0.130
  0.150   0.152   0.158   0.170   0.176   0.184   0.186   0.188
  0.189   0.197   0.203   0.206   0.226   0.241   0.249   0.251
  0.256   0.259   0.262   0.271   0.280   0.281   0.288   0.294
  0.307   0.314   0.318   0.324   0.336   0.344   0.347   0.352
  0.356   0.372   0.375   0.381   0.386   0.394   0.396   0.408
  0.409   0.416   0.423   0.426   0.445   0.453   0.460   0.464
  0.466   0.473   0.478   0.494   0.499   0.512   0.524   0.528
  0.537   0.539   0.549   0.550   0.559   0.567   0.588   0.604
  0.614   0.625   0.632   0.636   0.650   0.663   0.669   0.685
  0.706   0.709   0.740   0.751   0.755   0.771   0.787   0.809
  0.814   0.828   0.834   0.843   0.851   0.863   0.870   0.886
  0.905   0.909   0.923   0.930   0.934   0.952   0.962   0.984
  0.996   1.019   1.033   1.043   1.061   1.070   1.083   1.091
  1.113   1.116   1.131   1.144   1.154   1.160   1.173   1.201
  1.218   1.245   1.253   1.269   1.285   1.315   1.326   1.354
  1.368   1.380   1.390   1.394   1.404   1.412   1.453   1.458
  1.473   1.483   1.551   1.597   1.630   1.640   1.673   1.686
  1.690   1.715   1.731   1.780   1.809   1.819   1.828   1.836
  1.851   1.884   1.896   1.910   1.919   1.941   1.963   1.976
  1.987   1.990   2.003   2.012   2.034   2.048   2.066   2.080
  2.088   2.108   2.118   2.144   2.146   2.155   2.186   2.190
  2.208   2.230   2.234   2.256   2.276   2.284   2.328   2.340
  2.355   2.364   2.383   2.392   2.408   2.411   2.430   2.444
  2.450   2.472   2.488   2.508   2.521   2.524   2.540   2.550
  2.568   2.589   2.596   2.622   2.635   2.645   2.659   2.678
  2.683   2.696   2.700   2.725   2.737   2.741   2.757   2.765
  2.781   2.787   2.793   2.829   2.873   2.890   2.908   2.921
  2.934   2.958   2.960   2.989   3.024   3.068   3.081   3.106
  3.122   3.127   3.146   3.211   3.227   3.260   3.263   3.303
  3.310   3.330   3.378   3.405   3.423   3.427   3.445   3.451
  3.483   3.499   3.523   3.539   3.566   3.655   3.699   3.709
  3.721   3.763   3.787   3.860   3.868   3.884   3.891   3.955
  3.997   4.068   4.117   4.140   4.218   4.261   4.346   4.379
  4.455   4.467   4.520   4.536   4.597   4.695   4.752   4.792
  4.799   4.831   4.856   4.883   4.933   4.947   5.018   5.045
  5.097   5.131   5.152   5.163   5.219   5.247   5.270   5.276
  5.319   5.348   5.351   5.378   5.392   5.454   5.465   5.495
  5.511   5.530   5.543   5.583   5.680   5.685   5.703   5.735
  5.773   5.783   5.802   5.837   5.842   5.853   5.875   5.884
  5.920   5.951   5.967   5.994   6.002   6.006   6.009   6.023
  6.039   6.050   6.076   6.091   6.121   6.132   6.157   6.175
  6.202   6.228   6.242   6.245   6.249   6.255   6.291   6.298
  6.313   6.333   6.341   6.347   6.374   6.392   6.399   6.407
  6.448   6.453   6.494   6.539   6.573   6.590   6.627   6.633
  6.678   6.725   6.762   6.785   6.806   6.826   6.843   6.864
  6.887   6.915   6.925   6.945   6.984   7.008   7.016   7.020
  7.052   7.078   7.080   7.091   7.101   7.128   7.256   7.298
  7.310   7.321   7.360   7.385   7.393   7.463   7.484   7.520
  7.533   7.538   7.570   7.593   7.609   7.628   7.632   7.644
  7.654   7.659   7.669   7.705   7.731   7.748   7.756   7.767
  7.805   7.808   7.840   7.858   7.904   7.916   7.933   7.979
  7.994   8.009   8.017   8.034   8.059   8.076   8.081   8.093
  8.113   8.128   8.151   8.166   8.187   8.190   8.196   8.213
  8.219   8.246   8.274   8.288   8.339   8.345   8.363   8.387
  8.438   8.446   8.483   8.508   8.516   8.529   8.548   8.566
  8.621   8.651   8.686   8.724   8.754   8.770   8.830   8.837
  8.865   8.914   8.971   9.020   9.030   9.083   9.133   9.208
  9.263   9.416   9.468   9.547   9.575   9.620   9.652   9.701
  9.729   9.751   9.782   9.847   9.866   9.889   9.981  10.029
 10.055  10.127  10.255  10.273  10.297  10.357  10.362  10.775
 10.805  10.873  11.090  11.301  11.549  11.572  11.594  11.866
 12.235  12.247  12.389  12.409  12.568  12.747  12.861  12.963
 13.161  14.950  28.177  28.570  28.868  29.002  37.923 147.151
147.523 147.812 147.929 197.143
 --------------------------------------------------------------
 
          Ground-State Mulliken Net Atomic Charges

     Atom                 Charge (a.u.)
  ----------------------------------------
      1 C                    -0.092976
      2 C                    -0.090898
      3 C                    -0.069793
      4 C                    -0.008752
      5 H                     0.053782
      6 H                     0.083050
      7 N                    -0.259864
      8 H                     0.072532
      9 H                     0.053945
     10 H                     0.306402
     11 H                     0.096921
     12 H                    -0.144349
  ----------------------------------------
  Sum of atomic charges =    -0.000000

 -----------------------------------------------------------------
                    Cartesian Multipole Moments
 -----------------------------------------------------------------
    Charge (ESU x 10^10)
                 0.0000
    Dipole Moment (Debye)
         X       1.2927      Y      -1.2752      Z      -0.1023
       Tot       1.8187
    Quadrupole Moments (Debye-Ang)
        XX     -28.0751     XY      -1.6496     YY     -28.3764
        XZ      -0.3914     YZ      -2.2396     ZZ     -35.8262
    Octopole Moments (Debye-Ang^2)
       XXX      18.2369    XXY      -4.6527    XYY       6.9184
       YYY     -12.2579    XXZ     -13.7723    XYZ      -0.2470
       YYZ     -14.2043    XZZ       6.9111    YZZ      -4.5043
       ZZZ     -49.9272
    Hexadecapole Moments (Debye-Ang^3)
      XXXX    -176.8804   XXXY      -2.9798   XXYY     -56.6505
      XYYY      -3.0364   YYYY    -170.4681   XXXZ      12.5740
      XXYZ      -0.4159   XYYZ       5.2017   YYYZ      -0.5593
      XXZZ     -70.2117   XYZZ       2.3836   YYZZ     -67.6574
      XZZZ      25.4060   YZZZ      13.4706   ZZZZ    -210.9494
 -----------------------------------------------------------------
Archival summary:
1\1\compute-0-14.local\SP\ProcedureUnspecified\BasisUnspecified\147\tsivion\ThuJun517:30:252014ThuJun517:30:252014\0\\#,ProcedureUnspecified,BasisUnspecified,\\0,1\N\H,1,1.00736\C,1,1.3755,2,124.887\H,3,1.08185,1,121.3,2,0.0966844,0\C,1,1.37697,2,125.164,3,-179.408,0\H,5,1.08119,1,121.084,2,-0.935172,0\C,3,1.38132,1,107.565,2,-179.613,0\H,7,1.0828,3,125.379,1,-179.901,0\C,5,1.38213,1,107.562,2,179.61,0\H,9,1.0824,5,125.909,1,179.462,0\H,3,2.75113,1,86.4525,2,-102.509,0\H,11,0.747442,3,156.417,1,52.1166,0\\\@

 Total job time:  401.25s(wall), 3055.79s(cpu) 
 Thu Jun  5 17:30:25 2014

======= MOLDEN-FORMATTED INPUT FILE FOLLOWS =======
[Molden Format]
[Atoms] (Angs)
  C      1    6      0.85635996      0.57076860     -0.02943521
  C      2    6     -0.37746376      1.19271119      0.00442730
  C      3    6     -1.33015972      0.22596708      0.43742961
  C      4    6     -0.65208780     -0.95754690      0.65553416
  H      5    1     -2.39391582      0.37365094      0.57550365
  H      6    1     -0.57622906      2.22351736     -0.25923506
  N      7    7      0.67427980     -0.73532647      0.36680156
  H      8    1      1.83446609      0.93884933     -0.30655991
  H      9    1     -0.99950107     -1.92510948      0.99248025
  H     10    1      1.40400756     -1.42560324      0.44291520
  H     11    1     -0.18311300      0.36880981      3.01975525
  H     12    1      0.16588682      0.51888179      3.66345319

======= END OF MOLDEN-FORMATTED INPUT FILE =======


        *************************************************************
        *                                                           *
        *  Thank you very much for using Q-Chem.  Have a nice day.  *
        *                                                           *
        *************************************************************


