                  Welcome to Q-Chem
     A Quantum Leap Into The Future Of Chemistry


 Q-Chem 4.2, Q-Chem, Inc., Pleasanton, CA (2014).

 Y. Shao,  Z. Gan,  E. Epifanovsky,  A. T. B. Gilbert,  M. Wormit,  
 J. Kussmann,  A. W. Lange,  A. Behn,  J. Deng,  X. Feng,  D. Ghosh,  
 M. Goldey,  P. R. Horn,  L. D. Jacobson,  I. Kaliman,  R. Z. Khaliullin,  
 T. Kus,  A. Landau,  J. Liu,  E. I. Proynov,  Y. M. Rhee,  R. M. Richard,  
 M. A. Rohrdanz,  R. P. Steele,  E. J. Sundstrom,  H. L. Woodcock III,  
 P. M. Zimmerman,  D. Zuev,  B. Albrecht,  E. Alguire,  B. Austin,  
 G. J. O. Beran,  Y. A. Bernard,  E. Berquist,  K. Brandhorst,  
 K. B. Bravaya,  S. T. Brown,  D. Casanova,  C.-M. Chang,  Y. Chen,  
 S. H. Chien,  K. D. Closser,  D. L. Crittenden,  M. Diedenhofen,  
 R. A. DiStasio Jr.,  H. Do,  A. D. Dutoi,  R. G. Edgar,  S. Fatehi,  
 L. Fusti-Molnar,  A. Ghysels,  A. Golubeva-Zadorozhnaya,  J. Gomes,  
 M. W. D. Hanson-Heine,  P. H. P. Harbach,  A. W. Hauser,  E. G. Hohenstein,  
 Z. C. Holden,  T.-C. Jagau,  H. Ji,  B. Kaduk,  K. Khistyaev,  Jaehoon Kim,  
 Jihan Kim,  R. A. King,  P. Klunzinger,  D. Kosenkov,  T. Kowalczyk,  
 C. M. Krauter,  K. U. Lao,  A. Laurent,  K. V. Lawler,  S. V. Levchenko,  
 C. Y. Lin,  F. Liu,  E. Livshits,  R. C. Lochan,  A. Luenser,  P. Manohar,  
 S. F. Manzer,  S.-P. Mao,  N. Mardirossian,  A. V. Marenich,  S. A. Maurer,  
 N. J. Mayhall,  C. M. Oana,  R. Olivares-Amaya,  D. P. O'Neill,  
 J. A. Parkhill,  T. M. Perrine,  R. Peverati,  P. A. Pieniazek,  A. Prociuk,  
 D. R. Rehn,  E. Rosta,  N. J. Russ,  N. Sergueev,  S. M. Sharada,  
 S. Sharma,  D. W. Small,  A. Sodt,  T. Stein,  D. Stuck,  Y.-C. Su,  
 A. J. W. Thom,  T. Tsuchimochi,  L. Vogt,  O. Vydrov,  T. Wang,  
 M. A. Watson,  J. Wenzel,  A. White,  C. F. Williams,  V. Vanovschi,  
 S. Yeganeh,  S. R. Yost,  Z.-Q. You,  I. Y. Zhang,  X. Zhang,  Y. Zhao,  
 B. R. Brooks,  G. K. L. Chan,  D. M. Chipman,  C. J. Cramer,  
 W. A. Goddard III,  M. S. Gordon,  W. J. Hehre,  A. Klamt,  
 H. F. Schaefer III,  M. W. Schmidt,  C. D. Sherrill,  D. G. Truhlar,  
 A. Warshel,  X. Xu,  A. Aspuru-Guzik,  R. Baer,  A. T. Bell,  N. A. Besley,  
 J.-D. Chai,  A. Dreuw,  B. D. Dunietz,  T. R. Furlani,  S. R. Gwaltney,  
 C.-P. Hsu,  Y. Jung,  J. Kong,  D. S. Lambrecht,  W. Liang,  C. Ochsenfeld,  
 V. A. Rassolov,  L. V. Slipchenko,  J. E. Subotnik,  T. Van Voorhis,  
 J. M. Herbert,  A. I. Krylov,  P. M. W. Gill,  M. Head-Gordon

 Contributors to earlier versions of Q-Chem not listed above: 
 R. D. Adamson,  J. Baker,  E. F. C. Byrd,  A. K. Chakraborty,  C.-L. Cheng,  
 H. Dachsel,  R. J. Doerksen,  G. Hawkins,  A. Heyden,  S. Hirata,  
 G. Kedziora,  F. J. Keil,  C. Kelley,  P. P. Korambath,  W. Kurlancheek,  
 A. M. Lee,  M. S. Lee,  D. Liotard,  I. Lotan,  P. E. Maslen,  N. Nair,  
 D. Neuhauser,  R. Olson,  B. Peters,  J. Ritchie,  N. E. Schultz,  
 N. Shenvi,  A. C. Simmonett,  K. S. Thanthiriwatte,  Q. Wu,  W. Zhang

 Q-Chem 4.2.0 for Intel X86 EM64T Linux

 Parts of Q-Chem use Armadillo 4.100.2 (Dirt Cruiser).
 http://arma.sourceforge.net/

 Q-Chem begins on Thu Jun  5 13:13:06 2014  

Host: compute-0-1.local
0

     Scratch files written to /scratch/tsivion/pyrrole-H2.in20140605131259//
 Jun314 |home|tsivion|software|qchem411|libmdc|qstr_info.C -1
Finally everything over in PARseQInput

--------------------------------------------------------------
User input:
--------------------------------------------------------------
$molecule
0 1
  C      0.83828590      0.57385329      0.02634652
  C     -0.39261110      1.18434575      0.01693180
  C     -1.35221820      0.21053035      0.40474310
  C     -0.67679984     -0.96299788      0.63781283
  H     -2.41534312      0.35185519      0.50220293
  H     -0.58489655      2.21164393     -0.24099169
  N      0.65286490     -0.73111884      0.40283300
  H      1.81733026      0.95389616     -0.20536553
  H     -1.02980561     -1.93018364      0.95046053
  H      1.38273574     -1.41146679      0.50730346
  H     -0.11251467      0.39802290      2.97547449
  H      0.29550230      0.52118958      3.58531855
$end

$rem
	jobtype 				opt
	exchange 				b97-d
	dft_d					empirical_grimme3
	basis 					gen ! def2-tzvpd
	max_scf_cycles 			200
	symmetry 				false
	sym_ignore 				true
	molden_format			true
	nbo						false
	scf_convergence 		8
	thresh					13
	geom_opt_tol_gradient 	10
	geom_opt_tol_energy     10
	GEOM_OPT_MAX_CYCLES		500
	thresh					13
	mem_static				3000
	mem_total				8000
	DFT_D3_RS6 				892
	DFT_D3_S8  				909
$end

$nbo
e2pert
$end

$basis ! def2-tzvpd
****
H     0 
S   3   1.00
     34.061341000            0.60251978000E-02      
      5.1235746000           0.45021094000E-01      
      1.1646626000           0.20189726000    
S   1   1.00
      0.32723041000          1.0000000        
S   1   1.00
      0.10307241000          1.0000000        
P   1   1.00
      0.80000000000          1.0000000        
P   1   1.00
      0.95774129632E-01            1.0000000        
****
C     0 
S   6   1.00
  13575.3496820              0.22245814352E-03      
   2035.2333680              0.17232738252E-02      
    463.22562359             0.89255715314E-02      
    131.20019598             0.35727984502E-01      
     42.853015891            0.11076259931    
     15.584185766            0.24295627626    
S   2   1.00
      6.2067138508           0.41440263448    
      2.5764896527           0.23744968655    
S   1   1.00
      0.57696339419          1.0000000        
S   1   1.00
      0.22972831358          1.0000000        
S   1   1.00
      0.95164440028E-01            1.0000000        
S   1   1.00
      0.48475401370E-01            1.0000000        
P   4   1.00
     34.697232244            0.53333657805E-02      
      7.9582622826           0.35864109092E-01      
      2.3780826883           0.14215873329    
      0.81433208183          0.34270471845    
P   1   1.00
      0.28887547253          1.0000000        
P   1   1.00
      0.10056823671          1.0000000        
D   1   1.00
      1.0970000000           1.0000000        
D   1   1.00
      0.31800000000          1.0000000        
D   1   1.00
      0.90985336424E-01            1.0000000        
F   1   1.00
      0.76100000000          1.0000000        
****
N     0 
S   6   1.00
  19730.8006470              0.21887984991E-03      
   2957.8958745              0.16960708803E-02      
    673.22133595             0.87954603538E-02      
    190.68249494             0.35359382605E-01      
     62.295441898            0.11095789217    
     22.654161182            0.24982972552    
S   2   1.00
      8.9791477428           0.40623896148    
      3.6863002370           0.24338217176    
S   1   1.00
      0.84660076805          1.0000000        
S   1   1.00
      0.33647133771          1.0000000        
S   1   1.00
      0.13647653675          1.0000000        
S   1   1.00
      0.68441605847E-01            1.0000000        
P   4   1.00
     49.200380510            0.55552416751E-02      
     11.346790537            0.38052379723E-01      
      3.4273972411           0.14953671029    
      1.1785525134           0.34949305230    
P   1   1.00
      0.41642204972          1.0000000        
P   1   1.00
      0.14260826011          1.0000000        
D   1   1.00
      1.6540000000           1.0000000        
D   1   1.00
      0.46900000000          1.0000000        
D   1   1.00
      0.12829642058          1.0000000        
F   1   1.00
      1.0930000000           1.0000000        
****
O     0 
S   6   1.00
  27032.3826310              0.21726302465E-03      
   4052.3871392              0.16838662199E-02      
    922.32722710             0.87395616265E-02      
    261.24070989             0.35239968808E-01      
     85.354641351            0.11153519115    
     31.035035245            0.25588953961    
S   2   1.00
     12.260860728            0.39768730901    
      4.9987076005           0.24627849430    
S   1   1.00
      1.1703108158           1.0000000        
S   1   1.00
      0.46474740994          1.0000000        
S   1   1.00
      0.18504536357          1.0000000        
S   1   1.00
      0.70288026270E-01            1.0000000        
P   4   1.00
     63.274954801            0.60685103418E-02      
     14.627049379            0.41912575824E-01      
      4.4501223456           0.16153841088    
      1.5275799647           0.35706951311    
P   1   1.00
      0.52935117943          1.0000000        
P   1   1.00
      0.17478421270          1.0000000        
P   1   1.00
      0.51112745706E-01            1.0000000        
D   1   1.00
      2.3140000000           1.0000000        
D   1   1.00
      0.64500000000          1.0000000        
D   1   1.00
      0.14696477366          1.0000000        
F   1   1.00
      1.4280000000           1.0000000        
****
$end


--------------------------------------------------------------
 ----------------------------------------------------------------
             Standard Nuclear Orientation (Angstroms)
    I     Atom           X                Y                Z
 ----------------------------------------------------------------
    1      C       0.8382859000     0.5738532900     0.0263465200
    2      C      -0.3926111000     1.1843457500     0.0169318000
    3      C      -1.3522182000     0.2105303500     0.4047431000
    4      C      -0.6767998400    -0.9629978800     0.6378128300
    5      H      -2.4153431200     0.3518551900     0.5022029300
    6      H      -0.5848965500     2.2116439300    -0.2409916900
    7      N       0.6528649000    -0.7311188400     0.4028330000
    8      H       1.8173302600     0.9538961600    -0.2053655300
    9      H      -1.0298056100    -1.9301836400     0.9504605300
   10      H       1.3827357400    -1.4114667900     0.5073034600
   11      H      -0.1125146700     0.3980229000     2.9754744900
   12      H       0.2955023000     0.5211895800     3.5853185500
 ----------------------------------------------------------------
 Nuclear Repulsion Energy =   173.6153247367 hartrees
 There are       19 alpha and       19 beta electrons

 Q-Chem warning in module /home/tsivion/software/qchem411/forms1/BasisType.C, line 1209:

 Setting pure/cartesian flag to 2111 for general basis


 Requested basis set is non-standard
 There are 100 shells and 248 basis functions

Total QAlloc Memory Limit   8000 MB
Mega-Array Size      2933 MB
MEM_STATIC part      3000 MB
 A cutoff of  1.0D-13 yielded   4967 shell pairs
 There are     31099 function pairs (     39199 Cartesian)
 Smallest overlap matrix eigenvalue = 1.21E-06

  Scale SEOQF with 1.000000e-01/1.000000e-01/1.000000e-01

 Standard Electronic Orientation quadrupole field applied
 Nucleus-field energy     =     0.0000000005 hartrees
 Guess MOs from core Hamiltonian diagonalization
 A restricted Kohn-Sham SCF calculation will be
 performed using Pulay DIIS extrapolation
 Exchange:  B97D      Correlation:  B97-D
 Using SG-1 standard quadrature grid
 SCF converges when DIIS error is below 1.0E-08
 using 6 threads for integral computing 
 
 -------------------------------------------------------
 OpenMP Integral Computing Module                       
 Release: version 1.0, May 2013, Q-Chem Inc. Pittsburgh 
 -------------------------------------------------------
 Integral Job Info:
 Integral job number is                      20
 Integral operator is                         1
 short-range coefficients               -999999
 long-range coefficients                -999999
 Omega coefficients                           0
 if combine SR and LR in K              -999999
 Integral screening is                        1
 Integral computing path is                   2
 max size of driver memory is            800000
 size of driver memory is                776850
 size of scratch memory is              1235520
 max col of scratch BK array              10000
 max len of scratch array in speh3          662
 max len of scratch index in speh4           32
 max int batch size is                       50
 min int batch size is                       15
 fixed nKL is                                15
 max L of basis functions is                  3
 order of int derivative is                   0
 number of shells is                        100
 number of basis is                         278
 number of cartesian basis is               278
 number of contracted shell pairs          4967
 number of primitive shell pairs          10620
 maxK2 (contraction) of shell pair           36
 max number of K2 of shell pair               1
 max number of CS2 of shell pair            838
 max number of PS2 of shell pair           1146
 mem total for path MDJ                   92176
 -------------------------------------------------------
         cpu  12.51 wall   2.09
 -------------------------------------------------------
 OpenMP BLAS3 based DFT computing Module                
 Release: version 1.0, May 2013, Q-Chem Inc. Pittsburgh 
 -------------------------------------------------------
in dftxc.C, eleTot sum is:38.000004, tauTot is:0.000000
 ---------------------------------------
  Cycle       Energy         DIIS Error
 ---------------------------------------
    1    -161.7504087348      8.18E-02
         cpu  12.96 wall   2.16
in dftxc.C, eleTot sum is:37.998469, tauTot is:0.000000
    2    -148.9931642593      4.36E-02
         cpu  11.31 wall   1.89
in dftxc.C, eleTot sum is:37.999868, tauTot is:0.000000
    3    -188.1893256639      4.84E-02
         cpu  10.42 wall   1.74
in dftxc.C, eleTot sum is:37.999959, tauTot is:0.000000
    4    -203.1713937729      2.80E-02
         cpu  11.68 wall   1.95
in dftxc.C, eleTot sum is:38.000033, tauTot is:0.000000
    5    -203.0486444047      2.88E-02
         cpu  12.05 wall   2.01
in dftxc.C, eleTot sum is:38.000050, tauTot is:0.000000
    6    -210.9469421972      6.12E-03
         cpu  12.17 wall   2.03
in dftxc.C, eleTot sum is:38.000186, tauTot is:0.000000
    7    -210.9806749934      6.69E-03
         cpu  12.18 wall   2.03
in dftxc.C, eleTot sum is:38.000104, tauTot is:0.000000
    8    -211.2678700397      1.24E-03
         cpu  11.95 wall   1.99
in dftxc.C, eleTot sum is:38.000129, tauTot is:0.000000
    9    -211.2731616469      1.02E-03
         cpu  10.86 wall   1.81
in dftxc.C, eleTot sum is:38.000125, tauTot is:0.000000
   10    -211.2795874105      5.36E-04
         cpu  12.65 wall   2.11
in dftxc.C, eleTot sum is:38.000131, tauTot is:0.000000
   11    -211.2817556667      1.14E-04
         cpu  12.16 wall   2.03
in dftxc.C, eleTot sum is:38.000131, tauTot is:0.000000
   12    -211.2818610087      2.98E-05
         cpu  12.22 wall   2.04
in dftxc.C, eleTot sum is:38.000131, tauTot is:0.000000
   13    -211.2818659803      1.68E-05
         cpu  11.23 wall   1.87
in dftxc.C, eleTot sum is:38.000131, tauTot is:0.000000
   14    -211.2818681091      3.17E-06
         cpu  12.30 wall   2.05
in dftxc.C, eleTot sum is:38.000131, tauTot is:0.000000
   15    -211.2818681940      8.60E-07
         cpu  12.70 wall   2.12
in dftxc.C, eleTot sum is:38.000131, tauTot is:0.000000
   16    -211.2818682000      1.33E-07
         cpu   9.51 wall   1.58
in dftxc.C, eleTot sum is:38.000131, tauTot is:0.000000
   17    -211.2818682001      2.70E-08
         cpu   9.78 wall   1.63
in dftxc.C, eleTot sum is:38.000131, tauTot is:0.000000
   18    -211.2818682001      3.82E-08
         cpu   8.30 wall   1.38
in dftxc.C, eleTot sum is:38.000131, tauTot is:0.000000
   19    -211.2818682001      1.27E-08
         cpu   8.88 wall   1.48
in dftxc.C, eleTot sum is:38.000131, tauTot is:0.000000
   20    -211.2818682001      3.54E-09 Convergence criterion met
 ---------------------------------------
 SCF time:  CPU 358.13 s  wall 61.95 s
 SCF   energy in the final basis set = -211.2818682001
 Total energy in the final basis set = -211.2818682001
 Analysis of SCF Wavefunction
 
 --------------------------------------------------------------
                    Orbital Energies (a.u.)
 --------------------------------------------------------------
 
 Alpha MOs
 -- Occupied --
-14.039  -9.917  -9.917  -9.883  -9.882  -0.899  -0.705  -0.656
 -0.536  -0.511  -0.492  -0.385  -0.379  -0.377  -0.352  -0.345
 -0.333  -0.216  -0.189
 -- Virtual --
 -0.007  -0.000   0.024   0.025   0.037   0.046   0.049   0.055
  0.074   0.092   0.105   0.110   0.122   0.127   0.137   0.138
  0.160   0.161   0.187   0.195   0.199   0.203   0.210   0.214
  0.217   0.221   0.234   0.239   0.254   0.269   0.276   0.279
  0.285   0.288   0.294   0.301   0.306   0.310   0.317   0.333
  0.340   0.347   0.348   0.365   0.380   0.387   0.394   0.410
  0.418   0.421   0.424   0.434   0.440   0.449   0.462   0.464
  0.471   0.481   0.492   0.496   0.526   0.534   0.546   0.564
  0.574   0.584   0.597   0.604   0.619   0.627   0.646   0.647
  0.657   0.672   0.675   0.683   0.692   0.702   0.709   0.714
  0.728   0.736   0.756   0.769   0.789   0.790   0.817   0.858
  0.903   0.929   0.945   0.951   0.959   0.974   1.003   1.064
  1.077   1.120   1.136   1.163   1.193   1.199   1.260   1.279
  1.286   1.348   1.363   1.374   1.397   1.401   1.429   1.453
  1.476   1.555   1.601   1.619   1.630   1.646   1.697   1.718
  1.728   1.732   1.766   1.778   1.781   1.857   1.861   1.899
  1.911   1.944   1.977   2.011   2.020   2.050   2.066   2.105
  2.158   2.161   2.208   2.231   2.232   2.248   2.337   2.348
  2.371   2.437   2.450   2.502   2.538   2.542   2.588   2.616
  2.630   2.641   2.663   2.675   2.705   2.720   2.785   2.797
  2.807   2.871   2.883   2.902   2.935   2.989   3.011   3.030
  3.052   3.074   3.087   3.111   3.143   3.147   3.175   3.200
  3.226   3.234   3.273   3.297   3.300   3.362   3.402   3.437
  3.454   3.480   3.481   3.499   3.533   3.571   3.576   3.621
  3.781   3.892   4.022   4.036   4.037   4.112   4.148   4.155
  4.246   4.304   4.309   4.314   4.431   4.547   4.559   4.688
  4.708   4.713   4.814   4.858   4.867   4.895   4.944   5.070
  5.136   5.257   5.409   5.415   5.519   5.597   5.740   5.950
 22.327  22.597  22.695  22.870  32.303
 --------------------------------------------------------------
 
          Ground-State Mulliken Net Atomic Charges

     Atom                 Charge (a.u.)
  ----------------------------------------
      1 C                    -0.482035
      2 C                    -0.140936
      3 C                    -0.130688
      4 C                    -0.519445
      5 H                     0.272678
      6 H                     0.289130
      7 N                     0.129572
      8 H                     0.244142
      9 H                     0.215193
     10 H                     0.122428
     11 H                    -0.249087
     12 H                     0.249048
  ----------------------------------------
  Sum of atomic charges =    -0.000000

 -----------------------------------------------------------------
                    Cartesian Multipole Moments
 -----------------------------------------------------------------
    Charge (ESU x 10^10)
                 0.0000
    Dipole Moment (Debye)
         X       1.3046      Y      -1.2672      Z      -0.0407
       Tot       1.8192
    Quadrupole Moments (Debye-Ang)
        XX     -27.9992     XY      -1.5423     YY     -28.3550
        XZ      -0.0412     YZ      -2.2531     ZZ     -35.7548
    Octopole Moments (Debye-Ang^2)
       XXX      19.2326    XXY      -4.4940    XYY       7.2582
       YYY     -11.9052    XXZ     -13.6532    XYZ      -0.2793
       YYZ     -14.2543    XZZ       7.6521    YZZ      -4.5738
       ZZZ     -50.6259
    Hexadecapole Moments (Debye-Ang^3)
      XXXX    -178.0147   XXXY      -3.6442   XXYY     -56.6953
      XYYY      -3.6329   YYYY    -169.4240   XXXZ       9.9211
      XXYZ      -0.6245   XYYZ       4.2146   YYYZ      -1.0493
      XXZZ     -68.9164   XYZZ       1.6276   YYZZ     -66.4891
      XZZZ      21.5960   YZZZ      12.0290   ZZZZ    -204.8531
 -----------------------------------------------------------------
 Calculating analytic gradient of the SCF energy
         cpu  19.67 wall   3.28
in dftxc.C, eleTot sum is:38.000131, tauTot is:0.000000
 Gradient of SCF Energy
            1           2           3           4           5           6
    1  -0.0041409   0.0032487   0.0015822   0.0004303   0.0040899   0.0009152
    2  -0.0009221  -0.0022727  -0.0033379   0.0034169  -0.0003315  -0.0039225
    3   0.0006679  -0.0000606   0.0004969  -0.0011200  -0.0002648   0.0009698
            7           8           9          10          11          12
    1  -0.0015999  -0.0038368   0.0013297  -0.0024757   0.0014219  -0.0009647
    2   0.0016489  -0.0011447   0.0037722   0.0026360   0.0006446  -0.0001871
    3  -0.0000308   0.0007533  -0.0011089  -0.0003150   0.0017846  -0.0017724
 Max gradient component =       4.141E-03
 RMS gradient           =       2.090E-03
 Gradient time:  CPU 30.89 s  wall 5.72 s
 Geometry Optimization Parameters
   NAtoms,    NIC,     NZ,  NCons,   NDum,   NFix, NCnnct, MaxDiis
       12     123       0       0       0       0       0       0


** GEOMETRY OPTIMIZATION IN DELOCALIZED INTERNAL COORDINATES **
   Searching for a Minimum

   Optimization Cycle:   1

                       Coordinates (Angstroms)
     ATOM                X               Y               Z
      1  C         0.8382859000    0.5738532900    0.0263465200
      2  C        -0.3926111000    1.1843457500    0.0169318000
      3  C        -1.3522182000    0.2105303500    0.4047431000
      4  C        -0.6767998400   -0.9629978800    0.6378128300
      5  H        -2.4153431200    0.3518551900    0.5022029300
      6  H        -0.5848965500    2.2116439300   -0.2409916900
      7  N         0.6528649000   -0.7311188400    0.4028330000
      8  H         1.8173302600    0.9538961600   -0.2053655300
      9  H        -1.0298056100   -1.9301836400    0.9504605300
     10  H         1.3827357400   -1.4114667900    0.5073034600
     11  H        -0.1125146700    0.3980229000    2.9754744900
     12  H         0.2955023000    0.5211895800    3.5853185500
   Point Group: c1    Number of degrees of freedom:    30


   Energy is   -211.281868200


 Attempting to Generate Delocalized Internal Coordinates
 GETINT wrote B to file, NVib is           30
 calling HSSCONV
 HCONV 3*NATOMS:           36
 wrote HINT to file
  writing hessian 

 30 Hessian modes will be used to form the next step
  Hessian Eigenvalues:
     0.016704    0.021242    0.022775    0.024502    0.027375    0.030560
     0.032781    0.034297    0.038403    0.047585    0.062503    0.068458
     0.071319    0.078909    0.099532    0.151333    0.159995    0.159999
     0.164962    0.332812    0.362070    0.363667    0.364213    0.364800
     0.365464    0.386020    0.407910    0.463666    0.471225    0.484950

 Minimum Search - Taking Simple RFO Step
 Searching for Lamda that Minimizes Along All modes
 Value Taken    Lamda =  -0.00059822
 Step Taken.  Stepsize is  0.039867

                             Maximum     Tolerance    Cnvgd?
         Gradient           0.014558      0.000010      NO
         Displacement       0.032564      0.001200      NO
         Energy change     *********      0.000000      NO


 New Cartesian Coordinates Obtained by Inverse Iteration

 Displacement from previous Coordinates is:  0.054635
 ----------------------------------------------------------------
             Standard Nuclear Orientation (Angstroms)
    I     Atom           X                Y                Z
 ----------------------------------------------------------------
    1      C       0.8441365787     0.5764289131     0.0234653676
    2      C      -0.3939166257     1.1907100839     0.0153166558
    3      C      -1.3559767199     0.2131133285     0.4055031865
    4      C      -0.6776819774    -0.9668162275     0.6401078649
    5      H      -2.4252543477     0.3532922539     0.5036992155
    6      H      -0.5897440381     2.2227556716    -0.2459256863
    7      N       0.6566481966    -0.7336799873     0.4026270392
    8      H       1.8291795273     0.9555435089    -0.2113956742
    9      H      -1.0319903851    -1.9394326613     0.9553686090
   10      H       1.3884596901    -1.4178555583     0.5076779464
   11      H      -0.1152759500     0.3962443983     2.9770484301
   12      H       0.2939460612     0.5192662762     3.5895770355
 ----------------------------------------------------------------
 Nuclear Repulsion Energy =   172.8568480769 hartrees
 There are       19 alpha and       19 beta electrons
 Applying Cartesian multipole field
    Component          Value
    ---------          -----
     (2,0,0)        1.00000E-11
     (0,2,0)        2.00000E-11
     (0,0,2)       -3.00000E-11
 Nucleus-field energy     =     0.0000000006 hartrees
 Requested basis set is non-standard
 There are 100 shells and 248 basis functions
 A cutoff of  1.0D-13 yielded   4967 shell pairs
 There are     31099 function pairs (     39199 Cartesian)
 Smallest overlap matrix eigenvalue = 1.28E-06
 Guess MOs from SCF MO coefficient file
Reading MOs from coefficient file
Reading MOs from coefficient file
 A restricted Kohn-Sham SCF calculation will be
 performed using Pulay DIIS extrapolation
 Exchange:  B97D      Correlation:  B97-D
 Using SG-1 standard quadrature grid
 SCF converges when DIIS error is below 1.0E-08
Geometry optimization detected.  Setting ReadMinima to 0
Setting SaveMinima to 0
 using 6 threads for integral computing 
         cpu   9.96 wall   1.66
 -------------------------------------------------------
 OpenMP BLAS3 based DFT computing Module                
 Release: version 1.0, May 2013, Q-Chem Inc. Pittsburgh 
 -------------------------------------------------------
in dftxc.C, eleTot sum is:37.977483, tauTot is:0.000000
 ---------------------------------------
  Cycle       Energy         DIIS Error
 ---------------------------------------
    1    -211.2809128097      2.10E-04
         cpu   9.13 wall   1.52
in dftxc.C, eleTot sum is:38.000124, tauTot is:0.000000
    2    -211.2821452497      5.78E-05
         cpu   8.41 wall   1.40
in dftxc.C, eleTot sum is:38.000127, tauTot is:0.000000
    3    -211.2821240407      8.37E-05
         cpu   8.46 wall   1.41
in dftxc.C, eleTot sum is:38.000126, tauTot is:0.000000
    4    -211.2821736863      1.31E-05
         cpu   9.43 wall   1.57
in dftxc.C, eleTot sum is:38.000126, tauTot is:0.000000
    5    -211.2821740701      1.04E-05
         cpu   8.24 wall   1.37
in dftxc.C, eleTot sum is:38.000126, tauTot is:0.000000
    6    -211.2821748485      2.60E-06
         cpu   8.50 wall   1.42
in dftxc.C, eleTot sum is:38.000126, tauTot is:0.000000
    7    -211.2821749038      5.65E-07
         cpu   8.29 wall   1.38
in dftxc.C, eleTot sum is:38.000126, tauTot is:0.000000
    8    -211.2821749061      1.74E-07
         cpu   8.77 wall   1.46
in dftxc.C, eleTot sum is:38.000126, tauTot is:0.000000
    9    -211.2821749063      1.06E-07
         cpu   7.63 wall   1.27
in dftxc.C, eleTot sum is:38.000126, tauTot is:0.000000
   10    -211.2821749064      1.95E-08
         cpu   7.41 wall   1.24
in dftxc.C, eleTot sum is:38.000126, tauTot is:0.000000
   11    -211.2821749064      1.18E-09 Convergence criterion met
 ---------------------------------------
 SCF time:  CPU 150.72 s  wall 26.70 s
 SCF   energy in the final basis set = -211.2821749064
 Total energy in the final basis set = -211.2821749064
 Analysis of SCF Wavefunction
 
 --------------------------------------------------------------
                    Orbital Energies (a.u.)
 --------------------------------------------------------------
 
 Alpha MOs
 -- Occupied --
-14.040  -9.920  -9.919  -9.886  -9.885  -0.896  -0.703  -0.654
 -0.535  -0.510  -0.491  -0.384  -0.379  -0.376  -0.350  -0.345
 -0.332  -0.216  -0.188
 -- Virtual --
 -0.007  -0.002   0.023   0.025   0.035   0.045   0.048   0.055
  0.074   0.092   0.105   0.110   0.122   0.126   0.136   0.138
  0.158   0.159   0.186   0.194   0.198   0.202   0.209   0.214
  0.216   0.221   0.233   0.239   0.253   0.268   0.275   0.277
  0.283   0.287   0.293   0.300   0.305   0.309   0.316   0.332
  0.339   0.346   0.348   0.363   0.379   0.385   0.392   0.409
  0.418   0.420   0.422   0.431   0.439   0.447   0.461   0.463
  0.471   0.480   0.492   0.495   0.525   0.534   0.545   0.563
  0.573   0.583   0.596   0.604   0.618   0.626   0.645   0.646
  0.655   0.671   0.674   0.680   0.690   0.701   0.707   0.713
  0.726   0.734   0.753   0.768   0.787   0.788   0.816   0.856
  0.902   0.927   0.943   0.950   0.956   0.973   1.001   1.063
  1.075   1.117   1.133   1.160   1.190   1.196   1.257   1.277
  1.283   1.347   1.360   1.372   1.396   1.399   1.426   1.450
  1.474   1.552   1.598   1.616   1.628   1.644   1.694   1.715
  1.726   1.730   1.763   1.777   1.781   1.854   1.859   1.900
  1.909   1.938   1.972   2.011   2.021   2.048   2.062   2.105
  2.152   2.158   2.205   2.227   2.228   2.238   2.336   2.346
  2.372   2.436   2.442   2.499   2.531   2.540   2.577   2.612
  2.621   2.638   2.658   2.672   2.698   2.714   2.775   2.788
  2.805   2.872   2.875   2.897   2.925   2.984   3.010   3.023
  3.049   3.069   3.083   3.111   3.133   3.146   3.168   3.196
  3.218   3.237   3.267   3.296   3.297   3.353   3.397   3.431
  3.443   3.470   3.471   3.489   3.523   3.559   3.566   3.616
  3.777   3.885   4.009   4.018   4.023   4.089   4.137   4.141
  4.227   4.284   4.295   4.296   4.416   4.531   4.542   4.688
  4.700   4.707   4.812   4.838   4.859   4.865   4.937   5.067
  5.128   5.238   5.405   5.410   5.513   5.582   5.717   5.932
 22.312  22.575  22.658  22.828  32.296
 --------------------------------------------------------------
 
          Ground-State Mulliken Net Atomic Charges

     Atom                 Charge (a.u.)
  ----------------------------------------
      1 C                    -0.479947
      2 C                    -0.140257
      3 C                    -0.128658
      4 C                    -0.508062
      5 H                     0.267250
      6 H                     0.284083
      7 N                     0.127754
      8 H                     0.240165
      9 H                     0.211290
     10 H                     0.126616
     11 H                    -0.250696
     12 H                     0.250462
  ----------------------------------------
  Sum of atomic charges =    -0.000000

 -----------------------------------------------------------------
                    Cartesian Multipole Moments
 -----------------------------------------------------------------
    Charge (ESU x 10^10)
                -0.0000
    Dipole Moment (Debye)
         X       1.3004      Y      -1.2694      Z      -0.0470
       Tot       1.8178
    Quadrupole Moments (Debye-Ang)
        XX     -27.9920     XY      -1.5533     YY     -28.3523
        XZ      -0.0592     YZ      -2.2943     ZZ     -35.8636
    Octopole Moments (Debye-Ang^2)
       XXX      19.2395    XXY      -4.5317    XYY       7.2368
       YYY     -12.0398    XXZ     -13.6715    XYZ      -0.2751
       YYZ     -14.2658    XZZ       7.6530    YZZ      -4.6405
       ZZZ     -50.7735
    Hexadecapole Moments (Debye-Ang^3)
      XXXX    -179.2252   XXXY      -3.5895   XXYY     -57.1380
      XYYY      -3.6621   YYYY    -170.7034   XXXZ       9.9860
      XXYZ      -0.6283   XYYZ       4.2615   YYYZ      -1.0675
      XXZZ     -69.4118   XYZZ       1.6815   YYZZ     -66.9428
      XZZZ      21.8526   YZZZ      12.2620   ZZZZ    -206.0036
 -----------------------------------------------------------------
 Calculating analytic gradient of the SCF energy
         cpu  15.32 wall   2.55
in dftxc.C, eleTot sum is:38.000126, tauTot is:0.000000
 Gradient of SCF Energy
            1           2           3           4           5           6
    1  -0.0002196   0.0004059  -0.0004426   0.0003113  -0.0000457  -0.0000905
    2  -0.0005019   0.0006937  -0.0009343   0.0002406   0.0000481   0.0000131
    3   0.0000661  -0.0002783   0.0001160  -0.0001917   0.0000944  -0.0000626
            7           8           9          10          11          12
    1  -0.0000887  -0.0000441  -0.0001226  -0.0000324   0.0002864   0.0000824
    2  -0.0000572   0.0001863  -0.0001083   0.0000511   0.0002627   0.0001063
    3   0.0001945  -0.0001545   0.0001343   0.0000820   0.0001908  -0.0001910
 Max gradient component =       9.343E-04
 RMS gradient           =       2.756E-04
 Gradient time:  CPU 25.52 s  wall 4.26 s
 Geometry Optimization Parameters
   NAtoms,    NIC,     NZ,  NCons,   NDum,   NFix, NCnnct, MaxDiis
       12     123       0       0       0       0       0       0

 Cartesian Hessian Update
 Hessian Updated using BFGS Update


** GEOMETRY OPTIMIZATION IN DELOCALIZED INTERNAL COORDINATES **
   Searching for a Minimum

   Optimization Cycle:   2

                       Coordinates (Angstroms)
     ATOM                X               Y               Z
      1  C         0.8441365787    0.5764289131    0.0234653676
      2  C        -0.3939166257    1.1907100839    0.0153166558
      3  C        -1.3559767199    0.2131133285    0.4055031865
      4  C        -0.6776819774   -0.9668162275    0.6401078649
      5  H        -2.4252543477    0.3532922539    0.5036992155
      6  H        -0.5897440381    2.2227556716   -0.2459256863
      7  N         0.6566481966   -0.7336799873    0.4026270392
      8  H         1.8291795273    0.9555435089   -0.2113956742
      9  H        -1.0319903851   -1.9394326613    0.9553686090
     10  H         1.3884596901   -1.4178555583    0.5076779464
     11  H        -0.1152759500    0.3962443983    2.9770484301
     12  H         0.2939460612    0.5192662762    3.5895770355
   Point Group: c1    Number of degrees of freedom:    30


   Energy is   -211.282174906

 GETINT wrote B to file, NVib is           30
 Hessian Updated using BFGS Update

 30 Hessian modes will be used to form the next step
  Hessian Eigenvalues:
     0.016712    0.021224    0.022775    0.024500    0.027355    0.030549
     0.032767    0.034288    0.038300    0.047539    0.062514    0.068332
     0.071303    0.078759    0.099457    0.151270    0.159484    0.160060
     0.164935    0.331743    0.359610    0.363887    0.364470    0.365228
     0.374175    0.385069    0.408373    0.464242    0.470779    0.486130

 Minimum Search - Taking Simple RFO Step
 Searching for Lamda that Minimizes Along All modes
 Value Taken    Lamda =  -0.00000456
 Step Taken.  Stepsize is  0.008172

                             Maximum     Tolerance    Cnvgd?
         Gradient           0.000361      0.000010      NO
         Displacement       0.004036      0.001200      NO
         Energy change     -0.000307      0.000000      NO


 New Cartesian Coordinates Obtained by Inverse Iteration

 Displacement from previous Coordinates is:  0.008446
 ----------------------------------------------------------------
             Standard Nuclear Orientation (Angstroms)
    I     Atom           X                Y                Z
 ----------------------------------------------------------------
    1      C       0.8445422943     0.5768616174     0.0229294144
    2      C      -0.3938432290     1.1905033068     0.0155037868
    3      C      -1.3555279424     0.2139723374     0.4064804191
    4      C      -0.6774961606    -0.9663508482     0.6409976638
    5      H      -2.4248594464     0.3537517800     0.5044565801
    6      H      -0.5899660282     2.2221634250    -0.2468158257
    7      N       0.6568340195    -0.7332592954     0.4021356143
    8      H       1.8297719743     0.9546843135    -0.2128397597
    9      H      -1.0310259159    -1.9390330188     0.9563854669
   10      H       1.3886859623    -1.4176297014     0.5065256695
   11      H      -0.1167736609     0.3955601537     2.9771460412
   12      H       0.2921881429     0.5183459299     3.5901649193
 ----------------------------------------------------------------
 Nuclear Repulsion Energy =   172.8633983678 hartrees
 There are       19 alpha and       19 beta electrons
 Applying Cartesian multipole field
    Component          Value
    ---------          -----
     (2,0,0)        1.00000E-11
     (0,2,0)        2.00000E-11
     (0,0,2)       -3.00000E-11
 Nucleus-field energy     =     0.0000000006 hartrees
 Requested basis set is non-standard
 There are 100 shells and 248 basis functions
 A cutoff of  1.0D-13 yielded   4967 shell pairs
 There are     31099 function pairs (     39199 Cartesian)
 Smallest overlap matrix eigenvalue = 1.28E-06
 Guess MOs from SCF MO coefficient file
Reading MOs from coefficient file
Reading MOs from coefficient file
 A restricted Kohn-Sham SCF calculation will be
 performed using Pulay DIIS extrapolation
 Exchange:  B97D      Correlation:  B97-D
 Using SG-1 standard quadrature grid
 SCF converges when DIIS error is below 1.0E-08
Geometry optimization detected.  Setting ReadMinima to 0
Setting SaveMinima to 0
 using 6 threads for integral computing 
         cpu   8.86 wall   1.48
 -------------------------------------------------------
 OpenMP BLAS3 based DFT computing Module                
 Release: version 1.0, May 2013, Q-Chem Inc. Pittsburgh 
 -------------------------------------------------------
in dftxc.C, eleTot sum is:38.000637, tauTot is:0.000000
 ---------------------------------------
  Cycle       Energy         DIIS Error
 ---------------------------------------
    1    -211.2817045268      3.38E-05
         cpu   8.16 wall   1.36
in dftxc.C, eleTot sum is:38.000126, tauTot is:0.000000
    2    -211.2821744027      4.26E-06
         cpu   8.04 wall   1.34
in dftxc.C, eleTot sum is:38.000126, tauTot is:0.000000
    3    -211.2821739237      9.11E-06
         cpu   7.68 wall   1.28
in dftxc.C, eleTot sum is:38.000126, tauTot is:0.000000
    4    -211.2821745445      1.20E-06
         cpu   7.53 wall   1.25
in dftxc.C, eleTot sum is:38.000126, tauTot is:0.000000
    5    -211.2821745536      6.38E-07
         cpu   7.66 wall   1.28
in dftxc.C, eleTot sum is:38.000126, tauTot is:0.000000
    6    -211.2821745568      8.39E-08
         cpu   7.80 wall   1.30
in dftxc.C, eleTot sum is:38.000126, tauTot is:0.000000
    7    -211.2821745568      5.40E-08
         cpu   7.38 wall   1.23
in dftxc.C, eleTot sum is:38.000126, tauTot is:0.000000
    8    -211.2821745568      1.25E-08
         cpu   6.86 wall   1.14
in dftxc.C, eleTot sum is:38.000126, tauTot is:0.000000
    9    -211.2821745568      4.13E-09 Convergence criterion met
 ---------------------------------------
 SCF time:  CPU 111.79 s  wall 18.90 s
 SCF   energy in the final basis set = -211.2821745568
 Total energy in the final basis set = -211.2821745568
 Analysis of SCF Wavefunction
 
 --------------------------------------------------------------
                    Orbital Energies (a.u.)
 --------------------------------------------------------------
 
 Alpha MOs
 -- Occupied --
-14.040  -9.920  -9.919  -9.886  -9.885  -0.896  -0.703  -0.654
 -0.535  -0.510  -0.491  -0.384  -0.379  -0.376  -0.350  -0.344
 -0.333  -0.216  -0.188
 -- Virtual --
 -0.007  -0.002   0.023   0.025   0.035   0.045   0.048   0.055
  0.074   0.092   0.105   0.110   0.122   0.126   0.136   0.138
  0.158   0.159   0.186   0.194   0.198   0.202   0.209   0.214
  0.216   0.221   0.233   0.239   0.253   0.268   0.275   0.277
  0.283   0.287   0.293   0.300   0.305   0.309   0.317   0.332
  0.339   0.346   0.348   0.363   0.379   0.385   0.392   0.409
  0.418   0.420   0.422   0.431   0.439   0.447   0.461   0.463
  0.471   0.480   0.492   0.496   0.525   0.534   0.545   0.563
  0.573   0.583   0.596   0.604   0.618   0.626   0.645   0.646
  0.655   0.671   0.674   0.680   0.691   0.701   0.707   0.713
  0.726   0.734   0.753   0.768   0.787   0.788   0.816   0.856
  0.902   0.927   0.943   0.950   0.956   0.973   1.001   1.063
  1.075   1.117   1.133   1.160   1.190   1.196   1.257   1.277
  1.283   1.347   1.360   1.372   1.396   1.399   1.426   1.450
  1.474   1.551   1.597   1.616   1.629   1.644   1.694   1.715
  1.726   1.730   1.763   1.777   1.781   1.854   1.859   1.900
  1.909   1.938   1.972   2.011   2.021   2.048   2.062   2.105
  2.152   2.158   2.205   2.227   2.228   2.238   2.336   2.346
  2.372   2.436   2.443   2.499   2.531   2.540   2.577   2.612
  2.622   2.638   2.658   2.672   2.698   2.715   2.774   2.788
  2.805   2.872   2.875   2.897   2.925   2.984   3.010   3.023
  3.049   3.069   3.083   3.111   3.133   3.146   3.168   3.196
  3.218   3.237   3.267   3.296   3.297   3.353   3.397   3.431
  3.442   3.470   3.471   3.489   3.523   3.559   3.566   3.616
  3.777   3.885   4.009   4.018   4.023   4.089   4.138   4.141
  4.227   4.284   4.295   4.296   4.416   4.531   4.543   4.688
  4.700   4.707   4.812   4.837   4.859   4.866   4.936   5.067
  5.128   5.239   5.405   5.410   5.513   5.583   5.717   5.931
 22.312  22.576  22.658  22.829  32.296
 --------------------------------------------------------------
 
          Ground-State Mulliken Net Atomic Charges

     Atom                 Charge (a.u.)
  ----------------------------------------
      1 C                    -0.478639
      2 C                    -0.142906
      3 C                    -0.129172
      4 C                    -0.507125
      5 H                     0.267272
      6 H                     0.284499
      7 N                     0.127956
      8 H                     0.240371
      9 H                     0.211376
     10 H                     0.126593
     11 H                    -0.250991
     12 H                     0.250764
  ----------------------------------------
  Sum of atomic charges =     0.000000

 -----------------------------------------------------------------
                    Cartesian Multipole Moments
 -----------------------------------------------------------------
    Charge (ESU x 10^10)
                 0.0000
    Dipole Moment (Debye)
         X       1.2998      Y      -1.2704      Z      -0.0509
       Tot       1.8182
    Quadrupole Moments (Debye-Ang)
        XX     -27.9881     XY      -1.5534     YY     -28.3585
        XZ      -0.0633     YZ      -2.2959     ZZ     -35.8649
    Octopole Moments (Debye-Ang^2)
       XXX      19.2265    XXY      -4.5392    XYY       7.2304
       YYY     -12.0791    XXZ     -13.6893    XYZ      -0.2722
       YYZ     -14.2805    XZZ       7.6419    YZZ      -4.6482
       ZZZ     -50.8042
    Hexadecapole Moments (Debye-Ang^3)
      XXXX    -179.1654   XXXY      -3.5643   XXYY     -57.1329
      XYYY      -3.6371   YYYY    -170.6788   XXXZ      10.0469
      XXYZ      -0.6240   XYYZ       4.2824   YYYZ      -1.0634
      XXZZ     -69.4281   XYZZ       1.6951   YYZZ     -66.9477
      XZZZ      21.9322   YZZZ      12.2639   ZZZZ    -206.1346
 -----------------------------------------------------------------
 Calculating analytic gradient of the SCF energy
         cpu  15.16 wall   2.53
in dftxc.C, eleTot sum is:38.000126, tauTot is:0.000000
 Gradient of SCF Energy
            1           2           3           4           5           6
    1  -0.0000506   0.0001491  -0.0002414   0.0000134  -0.0000430  -0.0000839
    2  -0.0001488   0.0001160  -0.0003976   0.0000207  -0.0000159  -0.0000549
    3   0.0000289  -0.0000914   0.0000114  -0.0000415   0.0000702  -0.0000867
            7           8           9          10          11          12
    1  -0.0000620  -0.0000353  -0.0000337   0.0000251   0.0002021   0.0001602
    2   0.0000852   0.0000610  -0.0000410   0.0000094   0.0002383   0.0001278
    3   0.0000770  -0.0001255   0.0000997   0.0000661   0.0000644  -0.0000726
 Max gradient component =       3.976E-04
 RMS gradient           =       1.199E-04
 Gradient time:  CPU 25.42 s  wall 4.58 s
 Geometry Optimization Parameters
   NAtoms,    NIC,     NZ,  NCons,   NDum,   NFix, NCnnct, MaxDiis
       12     123       0       0       0       0       0       0

 Cartesian Hessian Update
 Hessian Updated using BFGS Update


** GEOMETRY OPTIMIZATION IN DELOCALIZED INTERNAL COORDINATES **
   Searching for a Minimum

   Optimization Cycle:   3

                       Coordinates (Angstroms)
     ATOM                X               Y               Z
      1  C         0.8445422943    0.5768616174    0.0229294144
      2  C        -0.3938432290    1.1905033068    0.0155037868
      3  C        -1.3555279424    0.2139723374    0.4064804191
      4  C        -0.6774961606   -0.9663508482    0.6409976638
      5  H        -2.4248594464    0.3537517800    0.5044565801
      6  H        -0.5899660282    2.2221634250   -0.2468158257
      7  N         0.6568340195   -0.7332592954    0.4021356143
      8  H         1.8297719743    0.9546843135   -0.2128397597
      9  H        -1.0310259159   -1.9390330188    0.9563854669
     10  H         1.3886859623   -1.4176297014    0.5065256695
     11  H        -0.1167736609    0.3955601537    2.9771460412
     12  H         0.2921881429    0.5183459299    3.5901649193
   Point Group: c1    Number of degrees of freedom:    30


   Energy is   -211.282174557

 GETINT wrote B to file, NVib is           30
 Hessian Updated using BFGS Update

 30 Hessian modes will be used to form the next step
  Hessian Eigenvalues:
     0.012626    0.020211    0.022530    0.023341    0.026883    0.028219
     0.031540    0.033996    0.034799    0.044811    0.057261    0.063303
     0.070131    0.077984    0.099733    0.153617    0.157160    0.160019
     0.175583    0.340117    0.362320    0.363797    0.364634    0.365599
     0.377863    0.392566    0.408178    0.464559    0.472738    0.489007

 Minimum Search - Taking Simple RFO Step
 Searching for Lamda that Minimizes Along All modes
 Value Taken    Lamda =  -0.00000530
 Step Taken.  Stepsize is  0.017916

                             Maximum     Tolerance    Cnvgd?
         Gradient           0.000154      0.000010      NO
         Displacement       0.008751      0.001200      NO
         Energy change      0.000000      0.000000      NO


 New Cartesian Coordinates Obtained by Inverse Iteration

 Displacement from previous Coordinates is:  0.020803
 ----------------------------------------------------------------
             Standard Nuclear Orientation (Angstroms)
    I     Atom           X                Y                Z
 ----------------------------------------------------------------
    1      C       0.8450591774     0.5771927337     0.0208872758
    2      C      -0.3934222550     1.1908248394     0.0159345736
    3      C      -1.3541760882     0.2155917035     0.4087770126
    4      C      -0.6764869547    -0.9654015649     0.6430027596
    5      H      -2.4235504629     0.3546860102     0.5066539890
    6      H      -0.5899175822     2.2220187618    -0.2479074519
    7      N       0.6575629787    -0.7327499356     0.4013422789
    8      H       1.8303387204     0.9528668592    -0.2174348997
    9      H      -1.0287696332    -1.9381533322     0.9589861432
   10      H       1.3894114417    -1.4173849145     0.5045839963
   11      H      -0.1207423580     0.3938847204     2.9771351330
   12      H       0.2872230260     0.5161941191     3.5911091796
 ----------------------------------------------------------------
 Nuclear Repulsion Energy =   172.8725199323 hartrees
 There are       19 alpha and       19 beta electrons
 Applying Cartesian multipole field
    Component          Value
    ---------          -----
     (2,0,0)        1.00000E-11
     (0,2,0)        2.00000E-11
     (0,0,2)       -3.00000E-11
 Nucleus-field energy     =     0.0000000006 hartrees
 Requested basis set is non-standard
 There are 100 shells and 248 basis functions
 A cutoff of  1.0D-13 yielded   4967 shell pairs
 There are     31099 function pairs (     39199 Cartesian)
 Smallest overlap matrix eigenvalue = 1.28E-06
 Guess MOs from SCF MO coefficient file
Reading MOs from coefficient file
Reading MOs from coefficient file
 A restricted Kohn-Sham SCF calculation will be
 performed using Pulay DIIS extrapolation
 Exchange:  B97D      Correlation:  B97-D
 Using SG-1 standard quadrature grid
 SCF converges when DIIS error is below 1.0E-08
Geometry optimization detected.  Setting ReadMinima to 0
Setting SaveMinima to 0
 using 6 threads for integral computing 
         cpu   9.39 wall   1.56
 -------------------------------------------------------
 OpenMP BLAS3 based DFT computing Module                
 Release: version 1.0, May 2013, Q-Chem Inc. Pittsburgh 
 -------------------------------------------------------
in dftxc.C, eleTot sum is:38.001096, tauTot is:0.000000
 ---------------------------------------
  Cycle       Energy         DIIS Error
 ---------------------------------------
    1    -211.2817903945      6.01E-05
         cpu   8.65 wall   1.44
in dftxc.C, eleTot sum is:38.000127, tauTot is:0.000000
    2    -211.2821674120      8.36E-06
         cpu   9.30 wall   1.55
in dftxc.C, eleTot sum is:38.000127, tauTot is:0.000000
    3    -211.2821649066      1.93E-05
         cpu   9.63 wall   1.61
in dftxc.C, eleTot sum is:38.000127, tauTot is:0.000000
    4    -211.2821680237      1.79E-06
         cpu   8.24 wall   1.37
in dftxc.C, eleTot sum is:38.000127, tauTot is:0.000000
    5    -211.2821680438      8.68E-07
         cpu   7.66 wall   1.28
in dftxc.C, eleTot sum is:38.000127, tauTot is:0.000000
    6    -211.2821680489      2.52E-07
         cpu  10.27 wall   1.71
in dftxc.C, eleTot sum is:38.000127, tauTot is:0.000000
    7    -211.2821680493      1.07E-07
         cpu   8.42 wall   1.40
in dftxc.C, eleTot sum is:38.000127, tauTot is:0.000000
    8    -211.2821680494      1.71E-08
         cpu   7.24 wall   1.21
in dftxc.C, eleTot sum is:38.000127, tauTot is:0.000000
    9    -211.2821680494      7.59E-09 Convergence criterion met
 ---------------------------------------
 SCF time:  CPU 128.12 s  wall 22.23 s
 SCF   energy in the final basis set = -211.2821680494
 Total energy in the final basis set = -211.2821680494
 Analysis of SCF Wavefunction
 
 --------------------------------------------------------------
                    Orbital Energies (a.u.)
 --------------------------------------------------------------
 
 Alpha MOs
 -- Occupied --
-14.040  -9.920  -9.919  -9.885  -9.885  -0.896  -0.703  -0.654
 -0.535  -0.510  -0.491  -0.384  -0.379  -0.376  -0.350  -0.344
 -0.333  -0.216  -0.188
 -- Virtual --
 -0.007  -0.003   0.023   0.025   0.035   0.045   0.048   0.055
  0.074   0.092   0.105   0.110   0.122   0.126   0.136   0.138
  0.158   0.159   0.186   0.194   0.198   0.202   0.209   0.214
  0.216   0.221   0.233   0.239   0.253   0.268   0.275   0.277
  0.283   0.287   0.293   0.300   0.305   0.309   0.317   0.332
  0.339   0.346   0.348   0.363   0.380   0.386   0.392   0.409
  0.418   0.420   0.422   0.431   0.439   0.447   0.461   0.463
  0.471   0.480   0.492   0.496   0.525   0.534   0.545   0.563
  0.573   0.583   0.597   0.603   0.618   0.626   0.645   0.646
  0.655   0.671   0.674   0.680   0.691   0.701   0.707   0.713
  0.726   0.734   0.754   0.767   0.787   0.788   0.816   0.856
  0.902   0.927   0.943   0.950   0.955   0.972   1.001   1.063
  1.075   1.117   1.133   1.160   1.190   1.196   1.258   1.277
  1.284   1.347   1.360   1.373   1.396   1.400   1.426   1.450
  1.474   1.551   1.597   1.616   1.629   1.644   1.694   1.715
  1.726   1.730   1.763   1.777   1.781   1.854   1.859   1.900
  1.910   1.938   1.973   2.011   2.021   2.048   2.061   2.106
  2.152   2.158   2.206   2.227   2.228   2.239   2.336   2.346
  2.373   2.436   2.443   2.499   2.531   2.540   2.577   2.613
  2.622   2.638   2.658   2.671   2.699   2.715   2.774   2.789
  2.805   2.872   2.875   2.897   2.924   2.984   3.010   3.023
  3.049   3.070   3.083   3.111   3.133   3.147   3.169   3.196
  3.218   3.237   3.267   3.296   3.296   3.353   3.398   3.432
  3.442   3.471   3.471   3.489   3.524   3.559   3.566   3.616
  3.778   3.885   4.008   4.019   4.024   4.089   4.139   4.141
  4.228   4.284   4.295   4.297   4.416   4.531   4.544   4.688
  4.700   4.707   4.812   4.837   4.859   4.866   4.936   5.067
  5.127   5.239   5.405   5.410   5.513   5.583   5.717   5.931
 22.312  22.577  22.657  22.830  32.296
 --------------------------------------------------------------
 
          Ground-State Mulliken Net Atomic Charges

     Atom                 Charge (a.u.)
  ----------------------------------------
      1 C                    -0.477366
      2 C                    -0.145746
      3 C                    -0.130688
      4 C                    -0.505519
      5 H                     0.267284
      6 H                     0.284963
      7 N                     0.128299
      8 H                     0.240976
      9 H                     0.211443
     10 H                     0.126540
     11 H                    -0.251522
     12 H                     0.251336
  ----------------------------------------
  Sum of atomic charges =    -0.000000

 -----------------------------------------------------------------
                    Cartesian Multipole Moments
 -----------------------------------------------------------------
    Charge (ESU x 10^10)
                -0.0000
    Dipole Moment (Debye)
         X       1.2991      Y      -1.2723      Z      -0.0581
       Tot       1.8193
    Quadrupole Moments (Debye-Ang)
        XX     -27.9876     XY      -1.5587     YY     -28.3635
        XZ      -0.0725     YZ      -2.3007     ZZ     -35.8674
    Octopole Moments (Debye-Ang^2)
       XXX      19.1864    XXY      -4.5609    XYY       7.2119
       YYY     -12.1381    XXZ     -13.7251    XYZ      -0.2730
       YYZ     -14.3032    XZZ       7.6158    YZZ      -4.6671
       ZZZ     -50.8603
    Hexadecapole Moments (Debye-Ang^3)
      XXXX    -179.0075   XXXY      -3.5043   XXYY     -57.1164
      XYYY      -3.5823   YYYY    -170.6347   XXXZ      10.2101
      XXYZ      -0.6126   XYYZ       4.3388   YYYZ      -1.0312
      XXZZ     -69.4455   XYZZ       1.7302   YYZZ     -66.9620
      XZZZ      22.1301   YZZZ      12.2891   ZZZZ    -206.4086
 -----------------------------------------------------------------
 Calculating analytic gradient of the SCF energy
         cpu  15.79 wall   2.63
in dftxc.C, eleTot sum is:38.000127, tauTot is:0.000000
 Gradient of SCF Energy
            1           2           3           4           5           6
    1   0.0000080  -0.0002555   0.0001014  -0.0002441  -0.0000132  -0.0000827
    2   0.0002248  -0.0003934   0.0003579  -0.0002797  -0.0001077  -0.0000842
    3  -0.0001147   0.0002113  -0.0001560   0.0001345   0.0000018  -0.0001200
            7           8           9          10          11          12
    1   0.0000318  -0.0000577   0.0001113   0.0000531   0.0001397   0.0002080
    2   0.0000703  -0.0001263   0.0000090  -0.0000267   0.0002179   0.0001380
    3   0.0000543  -0.0000963   0.0000541   0.0000618  -0.0000341   0.0000033
 Max gradient component =       3.934E-04
 RMS gradient           =       1.562E-04
 Gradient time:  CPU 30.06 s  wall 5.08 s
 Geometry Optimization Parameters
   NAtoms,    NIC,     NZ,  NCons,   NDum,   NFix, NCnnct, MaxDiis
       12     123       0       0       0       0       0       0

 Cartesian Hessian Update
 Hessian Updated using BFGS Update


** GEOMETRY OPTIMIZATION IN DELOCALIZED INTERNAL COORDINATES **
   Searching for a Minimum

   Optimization Cycle:   4

                       Coordinates (Angstroms)
     ATOM                X               Y               Z
      1  C         0.8450591774    0.5771927337    0.0208872758
      2  C        -0.3934222550    1.1908248394    0.0159345736
      3  C        -1.3541760882    0.2155917035    0.4087770126
      4  C        -0.6764869547   -0.9654015649    0.6430027596
      5  H        -2.4235504629    0.3546860102    0.5066539890
      6  H        -0.5899175822    2.2220187618   -0.2479074519
      7  N         0.6575629787   -0.7327499356    0.4013422789
      8  H         1.8303387204    0.9528668592   -0.2174348997
      9  H        -1.0287696332   -1.9381533322    0.9589861432
     10  H         1.3894114417   -1.4173849145    0.5045839963
     11  H        -0.1207423580    0.3938847204    2.9771351330
     12  H         0.2872230260    0.5161941191    3.5911091796
   Point Group: c1    Number of degrees of freedom:    30


   Energy is   -211.282168049

 GETINT wrote B to file, NVib is           30
 Hessian Updated using BFGS Update

 30 Hessian modes will be used to form the next step
  Hessian Eigenvalues:
     0.006780    0.020068    0.021841    0.023139    0.026590    0.027774
     0.031446    0.033919    0.034583    0.043681    0.055783    0.064182
     0.071161    0.078478    0.100211    0.154944    0.159975    0.164119
     0.176331    0.344805    0.363654    0.364211    0.364648    0.365794
     0.383443    0.405962    0.451145    0.464651    0.473525    0.525198

 Minimum Search - Taking Simple RFO Step
 Searching for Lamda that Minimizes Along All modes
 Value Taken    Lamda =  -0.00000392
 Step Taken.  Stepsize is  0.021003

                             Maximum     Tolerance    Cnvgd?
         Gradient           0.000218      0.000010      NO
         Displacement       0.009356      0.001200      NO
         Energy change      0.000007      0.000000      NO


 New Cartesian Coordinates Obtained by Inverse Iteration

 Displacement from previous Coordinates is:  0.025206
 ----------------------------------------------------------------
             Standard Nuclear Orientation (Angstroms)
    I     Atom           X                Y                Z
 ----------------------------------------------------------------
    1      C       0.8458469558     0.5773626797     0.0185191799
    2      C      -0.3926406381     1.1911280563     0.0156425343
    3      C      -1.3526701238     0.2170192824     0.4117133098
    4      C      -0.6750858630    -0.9643132715     0.6452867959
    5      H      -2.4220039505     0.3558482449     0.5103559323
    6      H      -0.5893996281     2.2219180618    -0.2495352055
    7      N       0.6584964802    -0.7322983805     0.4002061994
    8      H       1.8309446800     0.9517312208    -0.2224475886
    9      H      -1.0266158973    -1.9369090469     0.9624099790
   10      H       1.3903112662    -1.4171534344     0.5021442573
   11      H      -0.1256576268     0.3917082238     2.9768934893
   12      H       0.2810043553     0.5135283636     3.5918811069
 ----------------------------------------------------------------
 Nuclear Repulsion Energy =   172.8785670554 hartrees
 There are       19 alpha and       19 beta electrons
 Applying Cartesian multipole field
    Component          Value
    ---------          -----
     (2,0,0)        1.00000E-11
     (0,2,0)        2.00000E-11
     (0,0,2)       -3.00000E-11
 Nucleus-field energy     =     0.0000000005 hartrees
 Requested basis set is non-standard
 There are 100 shells and 248 basis functions
 A cutoff of  1.0D-13 yielded   4967 shell pairs
 There are     31099 function pairs (     39199 Cartesian)
 Smallest overlap matrix eigenvalue = 1.28E-06
 Guess MOs from SCF MO coefficient file
Reading MOs from coefficient file
Reading MOs from coefficient file
 A restricted Kohn-Sham SCF calculation will be
 performed using Pulay DIIS extrapolation
 Exchange:  B97D      Correlation:  B97-D
 Using SG-1 standard quadrature grid
 SCF converges when DIIS error is below 1.0E-08
Geometry optimization detected.  Setting ReadMinima to 0
Setting SaveMinima to 0
 using 6 threads for integral computing 
         cpu   9.72 wall   1.62
 -------------------------------------------------------
 OpenMP BLAS3 based DFT computing Module                
 Release: version 1.0, May 2013, Q-Chem Inc. Pittsburgh 
 -------------------------------------------------------
in dftxc.C, eleTot sum is:38.001184, tauTot is:0.000000
 ---------------------------------------
  Cycle       Energy         DIIS Error
 ---------------------------------------
    1    -211.2822188007      6.48E-05
         cpu   8.38 wall   1.40
in dftxc.C, eleTot sum is:38.000127, tauTot is:0.000000
    2    -211.2821588779      9.49E-06
         cpu   8.35 wall   1.39
in dftxc.C, eleTot sum is:38.000127, tauTot is:0.000000
    3    -211.2821557388      2.14E-05
         cpu   8.68 wall   1.45
in dftxc.C, eleTot sum is:38.000127, tauTot is:0.000000
    4    -211.2821596809      2.28E-06
         cpu   7.89 wall   1.31
in dftxc.C, eleTot sum is:38.000127, tauTot is:0.000000
    5    -211.2821597170      8.25E-07
         cpu   8.95 wall   1.49
in dftxc.C, eleTot sum is:38.000127, tauTot is:0.000000
    6    -211.2821597214      2.76E-07
         cpu   8.32 wall   1.39
in dftxc.C, eleTot sum is:38.000127, tauTot is:0.000000
    7    -211.2821597219      1.12E-07
         cpu  11.35 wall   1.90
in dftxc.C, eleTot sum is:38.000127, tauTot is:0.000000
    8    -211.2821597220      2.77E-08
         cpu   7.17 wall   1.19
in dftxc.C, eleTot sum is:38.000127, tauTot is:0.000000
    9    -211.2821597220      5.73E-09 Convergence criterion met
 ---------------------------------------
 SCF time:  CPU 134.71 s  wall 24.33 s
 SCF   energy in the final basis set = -211.2821597220
 Total energy in the final basis set = -211.2821597220
 Analysis of SCF Wavefunction
 
 --------------------------------------------------------------
                    Orbital Energies (a.u.)
 --------------------------------------------------------------
 
 Alpha MOs
 -- Occupied --
-14.040  -9.920  -9.919  -9.885  -9.885  -0.896  -0.703  -0.654
 -0.535  -0.510  -0.491  -0.384  -0.379  -0.376  -0.350  -0.344
 -0.333  -0.216  -0.188
 -- Virtual --
 -0.007  -0.003   0.024   0.025   0.035   0.045   0.048   0.055
  0.074   0.092   0.105   0.110   0.122   0.126   0.136   0.138
  0.158   0.159   0.186   0.194   0.198   0.202   0.209   0.214
  0.216   0.221   0.233   0.239   0.253   0.268   0.275   0.277
  0.283   0.287   0.293   0.300   0.305   0.309   0.317   0.332
  0.339   0.346   0.348   0.363   0.380   0.386   0.392   0.409
  0.418   0.420   0.422   0.431   0.439   0.447   0.461   0.463
  0.470   0.480   0.492   0.496   0.525   0.534   0.545   0.563
  0.573   0.583   0.597   0.603   0.619   0.626   0.645   0.646
  0.655   0.671   0.674   0.680   0.691   0.701   0.707   0.713
  0.726   0.734   0.754   0.767   0.787   0.788   0.816   0.856
  0.901   0.927   0.943   0.950   0.955   0.972   1.001   1.064
  1.075   1.117   1.133   1.161   1.190   1.196   1.258   1.277
  1.284   1.347   1.360   1.373   1.397   1.400   1.426   1.450
  1.475   1.550   1.597   1.617   1.629   1.645   1.694   1.715
  1.726   1.730   1.763   1.777   1.781   1.854   1.860   1.900
  1.910   1.938   1.974   2.011   2.021   2.048   2.061   2.107
  2.152   2.158   2.206   2.227   2.228   2.239   2.336   2.347
  2.373   2.437   2.443   2.499   2.531   2.540   2.577   2.613
  2.622   2.638   2.658   2.671   2.699   2.715   2.774   2.789
  2.806   2.872   2.875   2.897   2.924   2.984   3.010   3.023
  3.050   3.070   3.082   3.111   3.133   3.147   3.169   3.196
  3.218   3.237   3.267   3.296   3.296   3.353   3.398   3.432
  3.442   3.471   3.471   3.489   3.525   3.559   3.566   3.616
  3.778   3.885   4.008   4.019   4.024   4.089   4.140   4.141
  4.228   4.284   4.295   4.297   4.417   4.531   4.544   4.687
  4.700   4.707   4.812   4.836   4.860   4.867   4.936   5.067
  5.127   5.240   5.405   5.409   5.513   5.583   5.716   5.931
 22.312  22.577  22.657  22.830  32.295
 --------------------------------------------------------------
 
          Ground-State Mulliken Net Atomic Charges

     Atom                 Charge (a.u.)
  ----------------------------------------
      1 C                    -0.476305
      2 C                    -0.147589
      3 C                    -0.130828
      4 C                    -0.505491
      5 H                     0.267081
      6 H                     0.285363
      7 N                     0.128582
      8 H                     0.241502
      9 H                     0.211325
     10 H                     0.126470
     11 H                    -0.252121
     12 H                     0.252013
  ----------------------------------------
  Sum of atomic charges =    -0.000000

 -----------------------------------------------------------------
                    Cartesian Multipole Moments
 -----------------------------------------------------------------
    Charge (ESU x 10^10)
                -0.0000
    Dipole Moment (Debye)
         X       1.2986      Y      -1.2740      Z      -0.0644
       Tot       1.8203
    Quadrupole Moments (Debye-Ang)
        XX     -27.9871     XY      -1.5631     YY     -28.3684
        XZ      -0.0858     YZ      -2.3053     ZZ     -35.8695
    Octopole Moments (Debye-Ang^2)
       XXX      19.1310    XXY      -4.5794    XYY       7.1917
       YYY     -12.1882    XXZ     -13.7511    XYZ      -0.2729
       YYZ     -14.3247    XZZ       7.5781    YZZ      -4.6870
       ZZZ     -50.9070
    Hexadecapole Moments (Debye-Ang^3)
      XXXX    -178.8368   XXXY      -3.4476   XXYY     -57.0866
      XYYY      -3.5261   YYYY    -170.5794   XXXZ      10.3979
      XXYZ      -0.5900   XYYZ       4.4053   YYYZ      -0.9693
      XXZZ     -69.4557   XYZZ       1.7684   YYZZ     -66.9714
      XZZZ      22.3654   YZZZ      12.3408   ZZZZ    -206.7053
 -----------------------------------------------------------------
 Calculating analytic gradient of the SCF energy
         cpu  26.19 wall   4.37
in dftxc.C, eleTot sum is:38.000127, tauTot is:0.000000
 Gradient of SCF Energy
            1           2           3           4           5           6
    1   0.0001084  -0.0004287   0.0002444  -0.0003579  -0.0000196  -0.0000737
    2   0.0004023  -0.0006276   0.0006706  -0.0003949  -0.0001641  -0.0001063
    3  -0.0001199   0.0002624  -0.0001031   0.0002272  -0.0000488  -0.0001481
            7           8           9          10          11          12
    1   0.0000327  -0.0000458   0.0001651   0.0000468   0.0001201   0.0002081
    2   0.0000768  -0.0001969   0.0000158  -0.0000177   0.0002083   0.0001338
    3  -0.0000082  -0.0000797   0.0000349   0.0000432  -0.0000686   0.0000087
 Max gradient component =       6.706E-04
 RMS gradient           =       2.339E-04
 Gradient time:  CPU 46.01 s  wall 8.77 s
 Geometry Optimization Parameters
   NAtoms,    NIC,     NZ,  NCons,   NDum,   NFix, NCnnct, MaxDiis
       12     123       0       0       0       0       0       0

 Cartesian Hessian Update
 Hessian Updated using BFGS Update


** GEOMETRY OPTIMIZATION IN DELOCALIZED INTERNAL COORDINATES **
   Searching for a Minimum

   Optimization Cycle:   5

                       Coordinates (Angstroms)
     ATOM                X               Y               Z
      1  C         0.8458469558    0.5773626797    0.0185191799
      2  C        -0.3926406381    1.1911280563    0.0156425343
      3  C        -1.3526701238    0.2170192824    0.4117133098
      4  C        -0.6750858630   -0.9643132715    0.6452867959
      5  H        -2.4220039505    0.3558482449    0.5103559323
      6  H        -0.5893996281    2.2219180618   -0.2495352055
      7  N         0.6584964802   -0.7322983805    0.4002061994
      8  H         1.8309446800    0.9517312208   -0.2224475886
      9  H        -1.0266158973   -1.9369090469    0.9624099790
     10  H         1.3903112662   -1.4171534344    0.5021442573
     11  H        -0.1256576268    0.3917082238    2.9768934893
     12  H         0.2810043553    0.5135283636    3.5918811069
   Point Group: c1    Number of degrees of freedom:    30


   Energy is   -211.282159722

 GETINT wrote B to file, NVib is           30
 Hessian Updated using BFGS Update

 30 Hessian modes will be used to form the next step
  Hessian Eigenvalues:
     0.002517    0.019747    0.021524    0.023164    0.027415    0.027663
     0.031403    0.033953    0.034533    0.043309    0.055298    0.064315
     0.071292    0.078705    0.100946    0.154872    0.160065    0.163908
     0.179667    0.343029    0.363674    0.364139    0.364736    0.365881
     0.384956    0.405495    0.449002    0.464625    0.472460    0.516320

 Minimum Search - Taking Simple RFO Step
 Searching for Lamda that Minimizes Along All modes
 Value Taken    Lamda =  -0.00001007
 Step Taken.  Stepsize is  0.057382

                             Maximum     Tolerance    Cnvgd?
         Gradient           0.000300      0.000010      NO
         Displacement       0.027592      0.001200      NO
         Energy change      0.000008      0.000000      NO


 New Cartesian Coordinates Obtained by Inverse Iteration

 Displacement from previous Coordinates is:  0.070925
 ----------------------------------------------------------------
             Standard Nuclear Orientation (Angstroms)
    I     Atom           X                Y                Z
 ----------------------------------------------------------------
    1      C       0.8478603745     0.5770938956     0.0111387545
    2      C      -0.3901054747     1.1920822063     0.0147607444
    3      C      -1.3484931802     0.2202006803     0.4192844172
    4      C      -0.6707813058    -0.9614903605     0.6511577022
    5      H      -2.4174817866     0.3591999052     0.5213121176
    6      H      -0.5873921394     2.2222437321    -0.2523899078
    7      N       0.6614457977    -0.7314884458     0.3970905985
    8      H       1.8319486185     0.9492397700    -0.2371914263
    9      H      -1.0211205723    -1.9332211197     0.9720923157
   10      H       1.3932310678    -1.4168061248     0.4959027375
   11      H      -0.1397003456     0.3858979837     2.9760437755
   12      H       0.2631189561     0.5066178775     3.5938681611
 ----------------------------------------------------------------
 Nuclear Repulsion Energy =   172.8909670782 hartrees
 There are       19 alpha and       19 beta electrons
 Applying Cartesian multipole field
    Component          Value
    ---------          -----
     (2,0,0)        1.00000E-11
     (0,2,0)        2.00000E-11
     (0,0,2)       -3.00000E-11
 Nucleus-field energy     =     0.0000000005 hartrees
 Requested basis set is non-standard
 There are 100 shells and 248 basis functions
 A cutoff of  1.0D-13 yielded   4967 shell pairs
 There are     31099 function pairs (     39199 Cartesian)
 Smallest overlap matrix eigenvalue = 1.28E-06
 Guess MOs from SCF MO coefficient file
Reading MOs from coefficient file
Reading MOs from coefficient file
 A restricted Kohn-Sham SCF calculation will be
 performed using Pulay DIIS extrapolation
 Exchange:  B97D      Correlation:  B97-D
 Using SG-1 standard quadrature grid
 SCF converges when DIIS error is below 1.0E-08
Geometry optimization detected.  Setting ReadMinima to 0
Setting SaveMinima to 0
 using 6 threads for integral computing 
         cpu  19.39 wall   3.23
 -------------------------------------------------------
 OpenMP BLAS3 based DFT computing Module                
 Release: version 1.0, May 2013, Q-Chem Inc. Pittsburgh 
 -------------------------------------------------------
in dftxc.C, eleTot sum is:38.002290, tauTot is:0.000000
 ---------------------------------------
  Cycle       Energy         DIIS Error
 ---------------------------------------
    1    -211.2825506961      1.71E-04
         cpu  18.84 wall   3.16
in dftxc.C, eleTot sum is:38.000126, tauTot is:0.000000
    2    -211.2821295699      2.62E-05
         cpu   9.08 wall   1.51
in dftxc.C, eleTot sum is:38.000126, tauTot is:0.000000
    3    -211.2821058146      5.88E-05
         cpu   7.82 wall   1.30
in dftxc.C, eleTot sum is:38.000126, tauTot is:0.000000
    4    -211.2821356769      6.04E-06
         cpu   7.44 wall   1.24
in dftxc.C, eleTot sum is:38.000126, tauTot is:0.000000
    5    -211.2821359230      2.26E-06
         cpu   7.50 wall   1.25
in dftxc.C, eleTot sum is:38.000126, tauTot is:0.000000
    6    -211.2821359561      6.74E-07
         cpu   7.86 wall   1.31
in dftxc.C, eleTot sum is:38.000126, tauTot is:0.000000
    7    -211.2821359589      3.01E-07
         cpu   7.56 wall   1.26
in dftxc.C, eleTot sum is:38.000126, tauTot is:0.000000
    8    -211.2821359596      7.46E-08
         cpu   7.83 wall   1.31
in dftxc.C, eleTot sum is:38.000126, tauTot is:0.000000
    9    -211.2821359596      1.58E-08
         cpu   7.29 wall   1.21
in dftxc.C, eleTot sum is:38.000126, tauTot is:0.000000
   10    -211.2821359596      3.94E-09 Convergence criterion met
 ---------------------------------------
 SCF time:  CPU 157.40 s  wall 27.87 s
 SCF   energy in the final basis set = -211.2821359596
 Total energy in the final basis set = -211.2821359596
 Analysis of SCF Wavefunction
 
 --------------------------------------------------------------
                    Orbital Energies (a.u.)
 --------------------------------------------------------------
 
 Alpha MOs
 -- Occupied --
-14.040  -9.920  -9.919  -9.885  -9.885  -0.896  -0.703  -0.654
 -0.535  -0.510  -0.491  -0.384  -0.379  -0.376  -0.350  -0.344
 -0.333  -0.216  -0.188
 -- Virtual --
 -0.007  -0.003   0.024   0.025   0.035   0.045   0.048   0.055
  0.073   0.092   0.105   0.110   0.122   0.126   0.136   0.138
  0.158   0.159   0.186   0.193   0.197   0.202   0.209   0.215
  0.215   0.221   0.233   0.239   0.253   0.268   0.275   0.277
  0.282   0.287   0.293   0.299   0.305   0.309   0.318   0.332
  0.339   0.346   0.348   0.363   0.380   0.386   0.392   0.409
  0.418   0.420   0.422   0.432   0.439   0.447   0.460   0.463
  0.470   0.480   0.492   0.496   0.525   0.534   0.545   0.563
  0.574   0.583   0.597   0.603   0.619   0.627   0.645   0.646
  0.655   0.671   0.674   0.681   0.691   0.701   0.707   0.713
  0.726   0.734   0.754   0.767   0.787   0.788   0.815   0.855
  0.901   0.927   0.943   0.950   0.956   0.972   1.001   1.064
  1.075   1.116   1.133   1.161   1.190   1.197   1.258   1.277
  1.284   1.348   1.360   1.374   1.398   1.400   1.426   1.450
  1.476   1.550   1.597   1.617   1.629   1.645   1.693   1.714
  1.727   1.730   1.763   1.776   1.781   1.854   1.860   1.900
  1.910   1.938   1.977   2.011   2.022   2.048   2.060   2.110
  2.152   2.158   2.206   2.227   2.228   2.240   2.336   2.349
  2.375   2.437   2.443   2.499   2.531   2.540   2.577   2.614
  2.622   2.638   2.658   2.671   2.700   2.715   2.774   2.789
  2.806   2.872   2.876   2.897   2.924   2.983   3.010   3.023
  3.050   3.070   3.082   3.111   3.133   3.147   3.169   3.196
  3.219   3.237   3.267   3.296   3.296   3.353   3.399   3.432
  3.442   3.471   3.472   3.489   3.527   3.559   3.566   3.617
  3.778   3.886   4.008   4.019   4.024   4.090   4.140   4.141
  4.228   4.284   4.296   4.298   4.417   4.531   4.544   4.687
  4.700   4.707   4.812   4.836   4.860   4.867   4.937   5.067
  5.127   5.240   5.405   5.409   5.514   5.583   5.716   5.931
 22.313  22.578  22.657  22.830  32.295
 --------------------------------------------------------------
 
          Ground-State Mulliken Net Atomic Charges

     Atom                 Charge (a.u.)
  ----------------------------------------
      1 C                    -0.475468
      2 C                    -0.149189
      3 C                    -0.130081
      4 C                    -0.507138
      5 H                     0.266320
      6 H                     0.286053
      7 N                     0.129089
      8 H                     0.242894
      9 H                     0.210923
     10 H                     0.126430
     11 H                    -0.253762
     12 H                     0.253929
  ----------------------------------------
  Sum of atomic charges =     0.000000

 -----------------------------------------------------------------
                    Cartesian Multipole Moments
 -----------------------------------------------------------------
    Charge (ESU x 10^10)
                 0.0000
    Dipole Moment (Debye)
         X       1.2977      Y      -1.2772      Z      -0.0777
       Tot       1.8224
    Quadrupole Moments (Debye-Ang)
        XX     -27.9876     XY      -1.5782     YY     -28.3778
        XZ      -0.1253     YZ      -2.3159     ZZ     -35.8736
    Octopole Moments (Debye-Ang^2)
       XXX      18.9641    XXY      -4.6236    XYY       7.1353
       YYY     -12.2792    XXZ     -13.8025    XYZ      -0.2803
       YYZ     -14.3616    XZZ       7.4710    YZZ      -4.7371
       ZZZ     -50.9991
    Hexadecapole Moments (Debye-Ang^3)
      XXXX    -178.3685   XXXY      -3.3113   XXYY     -56.9892
      XYYY      -3.3840   YYYY    -170.4227   XXXZ      10.9114
      XXYZ      -0.5276   XYYZ       4.5877   YYYZ      -0.7754
      XXZZ     -69.4635   XYZZ       1.8740   YYZZ     -66.9925
      XZZZ      23.0144   YZZZ      12.4897   ZZZZ    -207.4897
 -----------------------------------------------------------------
 Calculating analytic gradient of the SCF energy
         cpu  15.74 wall   2.63
in dftxc.C, eleTot sum is:38.000126, tauTot is:0.000000
 Gradient of SCF Energy
            1           2           3           4           5           6
    1   0.0001826  -0.0005754   0.0003512  -0.0003895  -0.0000368  -0.0000602
    2   0.0004718  -0.0007444   0.0009204  -0.0004229  -0.0002310  -0.0001238
    3  -0.0002028   0.0003215   0.0000744   0.0003345  -0.0001631  -0.0001585
            7           8           9          10          11          12
    1   0.0000427  -0.0000399   0.0002049   0.0000458   0.0000802   0.0001945
    2   0.0000567  -0.0002535   0.0000191   0.0000027   0.0001861   0.0001189
    3  -0.0000339  -0.0000735   0.0000140   0.0000292  -0.0001407  -0.0000012
 Max gradient component =       9.204E-04
 RMS gradient           =       2.918E-04
 Gradient time:  CPU 26.27 s  wall 4.73 s
 Geometry Optimization Parameters
   NAtoms,    NIC,     NZ,  NCons,   NDum,   NFix, NCnnct, MaxDiis
       12     123       0       0       0       0       0       0

 Cartesian Hessian Update
 Hessian Updated using BFGS Update


** GEOMETRY OPTIMIZATION IN DELOCALIZED INTERNAL COORDINATES **
   Searching for a Minimum

   Optimization Cycle:   6

                       Coordinates (Angstroms)
     ATOM                X               Y               Z
      1  C         0.8478603745    0.5770938956    0.0111387545
      2  C        -0.3901054747    1.1920822063    0.0147607444
      3  C        -1.3484931802    0.2202006803    0.4192844172
      4  C        -0.6707813058   -0.9614903605    0.6511577022
      5  H        -2.4174817866    0.3591999052    0.5213121176
      6  H        -0.5873921394    2.2222437321   -0.2523899078
      7  N         0.6614457977   -0.7314884458    0.3970905985
      8  H         1.8319486185    0.9492397700   -0.2371914263
      9  H        -1.0211205723   -1.9332211197    0.9720923157
     10  H         1.3932310678   -1.4168061248    0.4959027375
     11  H        -0.1397003456    0.3858979837    2.9760437755
     12  H         0.2631189561    0.5066178775    3.5938681611
   Point Group: c1    Number of degrees of freedom:    30


   Energy is   -211.282135960

 GETINT wrote B to file, NVib is           30
 Hessian Updated using BFGS Update

 30 Hessian modes will be used to form the next step
  Hessian Eigenvalues:
     0.001652    0.019572    0.021397    0.023171    0.027268    0.027760
     0.031387    0.033949    0.034546    0.043545    0.055286    0.064250
     0.071161    0.078597    0.100630    0.154726    0.160081    0.163259
     0.177442    0.341017    0.363386    0.364008    0.364727    0.365880
     0.384949    0.404605    0.428973    0.464690    0.472408    0.499460

 Minimum Search - Taking Simple RFO Step
 Searching for Lamda that Minimizes Along All modes
 Value Taken    Lamda =  -0.00000816
 Step Taken.  Stepsize is  0.054272

                             Maximum     Tolerance    Cnvgd?
         Gradient           0.000374      0.000010      NO
[...]
D   1   1.00
      0.76889830417E-01            1.0000000        
F   1   1.00
      1.4190000000           1.0000000        
F   1   1.00
      0.48500000000          1.0000000        
G   1   1.00
      1.0110000000           1.0000000        
****
N     0 
S   8   1.00
  90726.8892100              0.39257887368E-04      
  13590.5288010              0.30513316455E-03      
   3092.9883781              0.16000560446E-02      
    875.99876362             0.66982937306E-02      
    285.74469982             0.23690078765E-01      
    103.11913417             0.71455405268E-01      
     40.128556777            0.17632774876    
     16.528095704            0.32677592815    
S   2   1.00
     69.390960983            0.80052094386E-01      
     20.428200596            0.78268063538    
S   1   1.00
      7.1292587972           1.0000000        
S   1   1.00
      3.1324304893           1.0000000        
S   1   1.00
      0.98755778723          1.0000000        
S   1   1.00
      0.38765721307          1.0000000        
S   1   1.00
      0.14909883075          1.0000000        
S   1   1.00
      0.62151630318E-01            1.0000000        
P   5   1.00
    150.05742670            -0.86216165986E-03      
     35.491599483           -0.68571273236E-02      
     11.247864223           -0.31795688855E-01      
      4.0900305195          -0.10537396822    
      1.6220573146          -0.24519708041    
P   1   1.00
      0.66442261530          1.0000000        
P   1   1.00
      0.27099770070          1.0000000        
P   1   1.00
      0.10688749984          1.0000000        
D   1   1.00
      2.8370000000           1.0000000        
D   1   1.00
      0.96800000000          1.0000000        
D   1   1.00
      0.33500000000          1.0000000        
D   1   1.00
      0.10825280010          1.0000000        
F   1   1.00
      2.0270000000           1.0000000        
F   1   1.00
      0.68500000000          1.0000000        
G   1   1.00
      1.4270000000           1.0000000        
****
O     0 
S   8   1.00
 116506.4690800              0.40383857939E-04      
  17504.3497240              0.31255139004E-03      
   3993.4513230              0.16341473495E-02      
   1133.0063186              0.68283224757E-02      
    369.99569594             0.24124410221E-01      
    133.62074349             0.72730206154E-01      
     52.035643649            0.17934429892    
     21.461939313            0.33059588895    
S   2   1.00
     89.835051252            0.96468652996E-01      
     26.428010844            0.94117481120    
S   1   1.00
      9.2822824649           1.0000000        
S   1   1.00
      4.0947728533           1.0000000        
S   1   1.00
      1.3255349078           1.0000000        
S   1   1.00
      0.51877230787          1.0000000        
S   1   1.00
      0.19772676454          1.0000000        
S   1   1.00
      0.69638535104E-01            1.0000000        
P   5   1.00
    191.15255810             0.25115697705E-02      
     45.233356739            0.20039240864E-01      
     14.353465922            0.93609064762E-01      
      5.2422371832           0.30618127124    
      2.0792418599           0.67810501439    
P   1   1.00
      0.84282371424          1.0000000        
P   1   1.00
      0.33617694891          1.0000000        
P   1   1.00
      0.12863997974          1.0000000        
P   1   1.00
      0.43598162776E-01            1.0000000        
D   1   1.00
      3.7750000000           1.0000000        
D   1   1.00
      1.3000000000           1.0000000        
D   1   1.00
      0.44400000000          1.0000000        
D   1   1.00
      0.12546378695          1.0000000        
F   1   1.00
      2.6660000000           1.0000000        
F   1   1.00
      0.85900000000          1.0000000        
G   1   1.00
      1.8460000000           1.0000000        
****
$end



--------------------------------------------------------------
 ----------------------------------------------------------------
             Standard Nuclear Orientation (Angstroms)
    I     Atom           X                Y                Z
 ----------------------------------------------------------------
    1      C       0.8563599627     0.5707685997    -0.0294352077
    2      C      -0.3774637601     1.1927111947     0.0044273031
    3      C      -1.3301597226     0.2259670756     0.4374296121
    4      C      -0.6520877964    -0.9575469046     0.6555341576
    5      H      -2.3939158161     0.3736509399     0.5755036469
    6      H      -0.5762290617     2.2235173582    -0.2592350649
    7      N       0.6742798020    -0.7353264661     0.3668015578
    8      H       1.8344660949     0.9388493309    -0.3065599050
    9      H      -0.9995010736    -1.9251094835     0.9924802542
   10      H       1.4040075637    -1.4256032431     0.4429151956
   11      H      -0.1831130000     0.3688098081     3.0197552462
   12      H       0.1658868173     0.5188817901     3.6634531943
 ----------------------------------------------------------------
 Nuclear Repulsion Energy =   172.7019089901 hartrees
 There are       19 alpha and       19 beta electrons

 Q-Chem warning in module /home/tsivion/software/qchem411/forms1/BasisType.C, line 1209:

 Setting pure/cartesian flag to 2111 for general basis


 Requested basis set is non-standard
 There are 172 shells and 546 basis functions

Total QAlloc Memory Limit   8000 MB
Mega-Array Size      2933 MB
MEM_STATIC part      3000 MB

                       Distance Matrix (Angstroms)
             C (  1)   C (  2)   C (  3)   C (  4)   H (  5)   H (  6)
   C (  2)  1.382129
   C (  3)  2.262238  1.424681
   C (  4)  2.253962  2.263398  1.381324
   H (  5)  3.311963  2.250126  1.082798  2.193731
   H (  6)  2.199249  1.082399  2.245876  3.310850  2.724478
   N (  7)  1.376968  2.225940  2.224152  1.375500  3.269130  3.272683
   H (  8)  1.081191  2.248064  3.328149  3.271833  4.356225  2.732044
   H (  9)  3.273826  3.329262  2.246007  1.081853  2.720765  4.353970
   H ( 10)  2.123331  3.197105  3.194274  2.119389  4.204654  4.210752
   H ( 11)  3.227825  3.131899  2.829227  2.751127  3.295761  3.787645
   H ( 12)  3.757242  3.760019  3.568078  3.449130  4.013616  4.340968
             N (  7)   H (  8)   H (  9)   H ( 10)   H ( 11)
   H (  8)  2.145300
   H (  9)  2.146765  4.233336
   H ( 10)  1.007362  2.517468  2.515628
   H ( 11)  2.998733  3.931913  3.168343  3.518377
   H ( 12)  3.563624  4.326839  3.803330  3.960534  0.747442
 
 A cutoff of  1.0D-13 yielded  13935 shell pairs
 There are    141327 function pairs (    207774 Cartesian)
 Smallest overlap matrix eigenvalue = 8.47E-08
 Linear dependence detected in AO basis
 Number of orthogonalized atomic orbitals = 543
 Maximum deviation from orthogonality = 9.050E-11

  Scale SEOQF with 1.000000e-01/1.000000e-01/1.000000e-01

 Standard Electronic Orientation quadrupole field applied
 Nucleus-field energy     =     0.0000000004 hartrees
 Guess MOs from core Hamiltonian diagonalization
 A restricted Kohn-Sham SCF calculation will be
 performed using Pulay DIIS extrapolation
 Exchange:  B97D      Correlation:  B97-D
 Using SG-1 standard quadrature grid
 SCF converges when DIIS error is below 1.0E-07
 using 6 threads for integral computing 
 
 -------------------------------------------------------
 OpenMP Integral Computing Module                       
 Release: version 1.0, May 2013, Q-Chem Inc. Pittsburgh 
 -------------------------------------------------------
 Integral Job Info:
 Integral job number is                      20
 Integral operator is                         1
 short-range coefficients               -999999
 long-range coefficients                -999999
 Omega coefficients                           0
 if combine SR and LR in K              -999999
 Integral screening is                        1
 Integral computing path is                   2
 max size of driver memory is           3200000
 size of driver memory is               1704462
 size of scratch memory is              4109775
 max col of scratch BK array              50625
 max len of scratch array in speh3         2114
 max len of scratch index in speh4           50
 max int batch size is                       50
 min int batch size is                       15
 fixed nKL is                                15
 max L of basis functions is                  4
 order of int derivative is                   0
 number of shells is                        172
 number of basis is                         661
 number of cartesian basis is               661
 number of contracted shell pairs         13935
 number of primitive shell pairs          25068
 maxK2 (contraction) of shell pair           64
 max number of K2 of shell pair               1
 max number of CS2 of shell pair           2197
 max number of PS2 of shell pair           2197
 mem total for path MDJ                  567700
 -------------------------------------------------------
         cpu 200.06 wall  33.38
 -------------------------------------------------------
 OpenMP BLAS3 based DFT computing Module                
 Release: version 1.0, May 2013, Q-Chem Inc. Pittsburgh 
 -------------------------------------------------------
in dftxc.C, eleTot sum is:37.999963, tauTot is:0.000000
 ---------------------------------------
  Cycle       Energy         DIIS Error
 ---------------------------------------
    1    -156.2605534885      4.49E-02
         cpu 178.28 wall  29.74
in dftxc.C, eleTot sum is:37.989247, tauTot is:0.000000
    2    -145.9018742839      2.15E-02
         cpu 210.73 wall  35.20
in dftxc.C, eleTot sum is:37.999933, tauTot is:0.000000
    3    -185.7049508485      2.39E-02
         cpu 224.33 wall  37.47
in dftxc.C, eleTot sum is:38.000033, tauTot is:0.000000
    4    -199.9038271605      1.65E-02
         cpu 202.61 wall  33.79
in dftxc.C, eleTot sum is:38.000053, tauTot is:0.000000
    5    -202.3692704557      1.38E-02
         cpu 212.91 wall  35.59
in dftxc.C, eleTot sum is:38.000092, tauTot is:0.000000
    6    -210.9017579871      3.08E-03
         cpu 225.45 wall  37.60
in dftxc.C, eleTot sum is:38.000219, tauTot is:0.000000
    7    -210.7900082817      4.03E-03
         cpu 199.16 wall  33.97
in dftxc.C, eleTot sum is:38.000081, tauTot is:0.000000
    8    -211.2763711455      6.29E-04
         cpu 160.40 wall  26.74
in dftxc.C, eleTot sum is:38.000082, tauTot is:0.000000
    9    -211.2925398290      2.80E-04
         cpu 163.89 wall  27.33
in dftxc.C, eleTot sum is:38.000079, tauTot is:0.000000
   10    -211.2941277162      1.73E-04
         cpu 153.50 wall  25.60
in dftxc.C, eleTot sum is:38.000081, tauTot is:0.000000
   11    -211.2952604127      4.49E-05
         cpu 170.46 wall  28.86
in dftxc.C, eleTot sum is:38.000081, tauTot is:0.000000
   12    -211.2953405108      8.34E-06
         cpu 166.39 wall  27.75
in dftxc.C, eleTot sum is:38.000081, tauTot is:0.000000
   13    -211.2953431416      2.53E-06
         cpu 142.83 wall  23.83
in dftxc.C, eleTot sum is:38.000081, tauTot is:0.000000
   14    -211.2953433473      1.13E-06
         cpu 144.15 wall  24.15
in dftxc.C, eleTot sum is:38.000081, tauTot is:0.000000
   15    -211.2953433925      2.23E-07
         cpu 171.02 wall  28.52
in dftxc.C, eleTot sum is:38.000081, tauTot is:0.000000
   16    -211.2953433943      3.05E-08 Convergence criterion met
 ---------------------------------------
 SCF time:  CPU 3280.52 s  wall 588.51 s
 SCF   energy in the final basis set = -211.2953433943
 Total energy in the final basis set = -211.2953433943
 Analysis of SCF Wavefunction
 
 --------------------------------------------------------------
                    Orbital Energies (a.u.)
 --------------------------------------------------------------
 
 Alpha MOs
 -- Occupied --
-14.041  -9.921  -9.921  -9.887  -9.887  -0.896  -0.704  -0.654
 -0.535  -0.510  -0.491  -0.384  -0.379  -0.375  -0.352  -0.345
 -0.333  -0.217  -0.188
 -- Virtual --
 -0.012  -0.004   0.019   0.019   0.034   0.040   0.042   0.046
  0.063   0.075   0.089   0.091   0.114   0.121   0.126   0.130
  0.150   0.152   0.158   0.170   0.176   0.184   0.186   0.188
  0.189   0.197   0.203   0.206   0.226   0.241   0.249   0.251
  0.256   0.259   0.262   0.271   0.280   0.281   0.288   0.294
  0.307   0.314   0.318   0.324   0.336   0.344   0.347   0.352
  0.356   0.372   0.375   0.381   0.386   0.394   0.396   0.408
  0.409   0.416   0.423   0.426   0.445   0.453   0.460   0.464
  0.466   0.473   0.478   0.494   0.499   0.512   0.524   0.528
  0.537   0.539   0.549   0.550   0.559   0.567   0.588   0.604
  0.614   0.625   0.632   0.636   0.650   0.663   0.669   0.685
  0.706   0.709   0.740   0.751   0.755   0.771   0.787   0.809
  0.814   0.828   0.834   0.843   0.851   0.863   0.870   0.886
  0.905   0.909   0.923   0.930   0.934   0.952   0.962   0.984
  0.996   1.019   1.033   1.043   1.061   1.070   1.083   1.091
  1.113   1.116   1.131   1.144   1.154   1.160   1.173   1.201
  1.218   1.245   1.253   1.269   1.285   1.315   1.326   1.354
  1.368   1.380   1.390   1.394   1.404   1.412   1.453   1.458
  1.473   1.483   1.551   1.597   1.630   1.640   1.673   1.686
  1.690   1.715   1.731   1.780   1.809   1.819   1.828   1.836
  1.851   1.884   1.896   1.910   1.919   1.941   1.963   1.976
  1.987   1.990   2.003   2.012   2.034   2.048   2.066   2.080
  2.088   2.108   2.118   2.144   2.146   2.155   2.186   2.190
  2.208   2.230   2.234   2.256   2.276   2.284   2.328   2.340
  2.355   2.364   2.383   2.392   2.408   2.411   2.430   2.444
  2.450   2.472   2.488   2.508   2.521   2.524   2.540   2.550
  2.568   2.589   2.596   2.622   2.635   2.645   2.659   2.678
  2.683   2.696   2.700   2.725   2.737   2.741   2.757   2.765
  2.781   2.787   2.793   2.829   2.873   2.890   2.908   2.921
  2.934   2.958   2.960   2.989   3.024   3.068   3.081   3.106
  3.122   3.127   3.146   3.211   3.227   3.260   3.263   3.303
  3.310   3.330   3.378   3.405   3.423   3.427   3.445   3.451
  3.483   3.499   3.523   3.539   3.566   3.655   3.699   3.709
  3.721   3.763   3.787   3.860   3.868   3.884   3.891   3.955
  3.997   4.068   4.117   4.140   4.218   4.261   4.346   4.379
  4.455   4.467   4.520   4.536   4.597   4.695   4.752   4.792
  4.799   4.831   4.856   4.883   4.933   4.947   5.018   5.045
  5.097   5.131   5.152   5.163   5.219   5.247   5.270   5.276
  5.319   5.348   5.351   5.378   5.392   5.454   5.465   5.495
  5.511   5.530   5.543   5.583   5.680   5.685   5.703   5.735
  5.773   5.783   5.802   5.837   5.842   5.853   5.875   5.884
  5.920   5.951   5.967   5.994   6.002   6.006   6.009   6.023
  6.039   6.050   6.076   6.091   6.121   6.132   6.157   6.175
  6.202   6.228   6.242   6.245   6.249   6.255   6.291   6.298
  6.313   6.333   6.341   6.347   6.374   6.392   6.399   6.407
  6.448   6.453   6.494   6.539   6.573   6.590   6.627   6.633
  6.678   6.725   6.762   6.785   6.806   6.826   6.843   6.864
  6.887   6.915   6.925   6.945   6.984   7.008   7.016   7.020
  7.052   7.078   7.080   7.091   7.101   7.128   7.256   7.298
  7.310   7.321   7.360   7.385   7.393   7.463   7.484   7.520
  7.533   7.538   7.570   7.593   7.609   7.628   7.632   7.644
  7.654   7.659   7.669   7.705   7.731   7.748   7.756   7.767
  7.805   7.808   7.840   7.858   7.904   7.916   7.933   7.979
  7.994   8.009   8.017   8.034   8.059   8.076   8.081   8.093
  8.113   8.128   8.151   8.166   8.187   8.190   8.196   8.213
  8.219   8.246   8.274   8.288   8.339   8.345   8.363   8.387
  8.438   8.446   8.483   8.508   8.516   8.529   8.548   8.566
  8.621   8.651   8.686   8.724   8.754   8.770   8.830   8.837
  8.865   8.914   8.971   9.020   9.030   9.083   9.133   9.208
  9.263   9.416   9.468   9.547   9.575   9.620   9.652   9.701
  9.729   9.751   9.782   9.847   9.866   9.889   9.981  10.029
 10.055  10.127  10.255  10.273  10.297  10.357  10.362  10.775
 10.805  10.873  11.090  11.301  11.549  11.572  11.594  11.866
 12.235  12.247  12.389  12.409  12.568  12.747  12.861  12.963
 13.161  14.950  28.177  28.570  28.868  29.002  37.923 147.151
147.523 147.812 147.929 197.143
 --------------------------------------------------------------
 
          Ground-State Mulliken Net Atomic Charges

     Atom                 Charge (a.u.)
  ----------------------------------------
      1 C                    -0.092976
      2 C                    -0.090898
      3 C                    -0.069793
      4 C                    -0.008752
      5 H                     0.053782
      6 H                     0.083050
      7 N                    -0.259864
      8 H                     0.072532
      9 H                     0.053945
     10 H                     0.306402
     11 H                     0.096921
     12 H                    -0.144349
  ----------------------------------------
  Sum of atomic charges =     0.000000

 -----------------------------------------------------------------
                    Cartesian Multipole Moments
 -----------------------------------------------------------------
    Charge (ESU x 10^10)
                -0.0000
    Dipole Moment (Debye)
         X       1.2927      Y      -1.2752      Z      -0.1023
       Tot       1.8187
    Quadrupole Moments (Debye-Ang)
        XX     -28.0751     XY      -1.6496     YY     -28.3764
        XZ      -0.3914     YZ      -2.2396     ZZ     -35.8262
    Octopole Moments (Debye-Ang^2)
       XXX      18.2369    XXY      -4.6527    XYY       6.9184
       YYY     -12.2579    XXZ     -13.7723    XYZ      -0.2470
       YYZ     -14.2043    XZZ       6.9111    YZZ      -4.5043
       ZZZ     -49.9272
    Hexadecapole Moments (Debye-Ang^3)
      XXXX    -176.8804   XXXY      -2.9798   XXYY     -56.6505
      XYYY      -3.0364   YYYY    -170.4681   XXXZ      12.5740
      XXYZ      -0.4159   XYYZ       5.2017   YYYZ      -0.5593
      XXZZ     -70.2117   XYZZ       2.3836   YYZZ     -67.6574
      XZZZ      25.4060   YZZZ      13.4706   ZZZZ    -210.9494
 -----------------------------------------------------------------
Archival summary:
1\1\compute-0-1.local\SP\ProcedureUnspecified\BasisUnspecified\147\tsivion\ThuJun513:47:162014ThuJun513:47:162014\0\\#,ProcedureUnspecified,BasisUnspecified,\\0,1\N\H,1,1.00736\C,1,1.3755,2,124.887\H,3,1.08185,1,121.3,2,0.0966837,0\C,1,1.37697,2,125.164,3,-179.408,0\H,5,1.08119,1,121.084,2,-0.935172,0\C,3,1.38132,1,107.565,2,-179.613,0\H,7,1.0828,3,125.379,1,-179.901,0\C,5,1.38213,1,107.562,2,179.61,0\H,9,1.0824,5,125.909,1,179.462,0\H,3,2.75113,1,86.4525,2,-102.509,0\H,11,0.747442,3,156.417,1,52.1166,0\\\@

 Total job time:  599.72s(wall), 3289.30s(cpu) 
 Thu Jun  5 13:47:17 2014

======= MOLDEN-FORMATTED INPUT FILE FOLLOWS =======
[Molden Format]
[Atoms] (Angs)
  C      1    6      0.85635996      0.57076860     -0.02943521
  C      2    6     -0.37746376      1.19271119      0.00442730
  C      3    6     -1.33015972      0.22596708      0.43742961
  C      4    6     -0.65208780     -0.95754690      0.65553416
  H      5    1     -2.39391582      0.37365094      0.57550365
  H      6    1     -0.57622906      2.22351736     -0.25923506
  N      7    7      0.67427980     -0.73532647      0.36680156
  H      8    1      1.83446609      0.93884933     -0.30655991
  H      9    1     -0.99950107     -1.92510948      0.99248025
  H     10    1      1.40400756     -1.42560324      0.44291520
  H     11    1     -0.18311300      0.36880981      3.01975525
  H     12    1      0.16588682      0.51888179      3.66345319

======= END OF MOLDEN-FORMATTED INPUT FILE =======


        *************************************************************
        *                                                           *
        *  Thank you very much for using Q-Chem.  Have a nice day.  *
        *                                                           *
        *************************************************************


